You are running Q-Chem version: 4.3

#
# job setting
#
local host:  tp-linux1
current dir: /home/thomas/CODE_displace_coords/qchem
input file:  b3lyp_gs.inp
output file: 
nprocs     : 1
nthreads   : 8
#
# qchem installation setting
#
QC:          /mnt/software/qchem
QCAUX:       /mnt/software/qchem/qcaux
QCPROG:      /mnt/software/qchem/exe/qcprog.exe
QCPROG_S:    /mnt/software/qchem/exe/qcprog.exe_s
PARALLEL:    -DPARALLEL
QCMPI:       mpich
#
# qchem directory setting
#
qcrun:       qchem21970
QCSCRATCH:   /scratch/qchem
QCLOCALSCR:  
QCTMPDIR:    /scratch/qchem
QCFILEPREF:  /scratch/qchem/qchem21970
QCSAVEDIR:   
workdirs:    /scratch/qchem/qchem21970
workdir0:    /scratch/qchem/qchem21970
partmpdirs =  
#
# parallel setting
#
QCRSH:           ssh
QCMPI:           mpich
QCMPIRUN:        /mnt/software/qchem/bin/mpi/mpirun_qchem
QCMACHINEFILE:   /mnt/software/qchem/bin/mpi/machines
127.0.1.1 32

#
# env setting
#
exported envs:   QC QCAUX QCSCRATCH QCRUNNAME QCFILEPREF QCPROG QCPROG_S GUIFILE

Running Job 1 of 1 b3lyp_gs.inp
qchem b3lyp_gs.inp_21970.0 /scratch/qchem/qchem21970/ 1
/mnt/software/qchem/bin/mpi/mpirun_qchem -machinefile /mnt/software/qchem/bin/mpi/machines -np 1 /mnt/software/qchem/exe/qcprog.exe b3lyp_gs.inp_21970.0 /scratch/qchem/qchem21970/

Process 0 of 1 is on tp-linux1 - thread support 0
initial socket setup ...start
initial socket setup ...done 
now start server 0 ... 

cmd = ssh tp-linux1 /mnt/software/qchem/bin/get_hostid 1915510086 > /scratch/qchem/qchem21970/lic.dat
                  Welcome to Q-Chem
     A Quantum Leap Into The Future Of Chemistry


 Q-Chem 4.3, Q-Chem, Inc., Pleasanton, CA (2015)

 Y. Shao,  Z. Gan,  E. Epifanovsky,  A. T. B. Gilbert,  M. Wormit,  
 J. Kussmann,  A. W. Lange,  A. Behn,  J. Deng,  X. Feng,  D. Ghosh,  
 M. Goldey,  P. R. Horn,  L. D. Jacobson,  I. Kaliman,  R. Z. Khaliullin,  
 T. Kus,  A. Landau,  J. Liu,  E. I. Proynov,  Y. M. Rhee,  R. M. Richard,  
 M. A. Rohrdanz,  R. P. Steele,  E. J. Sundstrom,  H. L. Woodcock III,  
 P. M. Zimmerman,  D. Zuev,  B. Albrecht,  E. Alguire,  B. Austin,  
 S. A. Baeppler,  G. J. O. Beran,  Y. A. Bernard,  E. Berquist,  
 K. Brandhorst,  K. B. Bravaya,  S. T. Brown,  D. Casanova,  C.-M. Chang,  
 Y. Chen,  S. H. Chien,  K. D. Closser,  D. L. Crittenden,  M. Diedenhofen,  
 R. A. DiStasio Jr.,  H. Do,  A. D. Dutoi,  R. G. Edgar,  P.-T. Fang,  
 S. Fatehi,  Q. Feng,  L. Fusti-Molnar,  A. Ghysels,  
 A. Golubeva-Zadorozhnaya,  J. Gomes,  A. Gunina,  M. W. D. Hanson-Heine,  
 P. H. P. Harbach,  A. W. Hauser,  E. G. Hohenstein,  Z. C. Holden,  K. Hui,  
 T.-C. Jagau,  H. Ji,  B. Kaduk,  K. Khistyaev,  Jaehoon Kim,  Jihan Kim,  
 R. A. King,  P. Klunzinger,  D. Kosenkov,  T. Kowalczyk,  C. M. Krauter,  
 K. U. Lao,  A. Laurent,  K. V. Lawler,  S. Lehtola,  S. V. Levchenko,  
 C. Y. Lin,  Y.-S. Lin,  F. Liu,  E. Livshits,  R. C. Lochan,  A. Luenser,  
 P. Manohar,  S. F. Manzer,  S.-P. Mao,  N. Mardirossian,  A. V. Marenich,  
 L. A. Martinez-Martinez,  S. A. Maurer,  N. J. Mayhall,  K. Nanda,  
 C. M. Oana,  R. Olivares-Amaya,  D. P. O'Neill,  J. A. Parkhill,  
 T. M. Perrine,  R. Peverati,  P. A. Pieniazek,  F. Plasser,  A. Prociuk,  
 D. R. Rehn,  E. Rosta,  N. J. Russ,  N. Sergueev,  S. M. Sharada,  
 S. Sharma,  D. W. Small,  A. Sodt,  T. Stauch,  T. Stein,  D. Stuck,  
 Y.-C. Su,  A. J. W. Thom,  T. Tsuchimochi,  L. Vogt,  O. Vydrov,  T. Wang,  
 M. A. Watson,  J. Wenzel,  A. White,  C. F. Williams,  V. Vanovschi,  
 S. Yeganeh,  S. R. Yost,  Z.-Q. You,  I. Y. Zhang,  X. Zhang,  Y. Zhao,  
 B. R. Brooks,  G. K. L. Chan,  D. M. Chipman,  C. J. Cramer,  
 W. A. Goddard III,  M. S. Gordon,  W. J. Hehre,  A. Klamt,  
 H. F. Schaefer III,  M. W. Schmidt,  C. D. Sherrill,  D. G. Truhlar,  
 A. Warshel,  X. Xu,  A. Aspuru-Guzik,  R. Baer,  A. T. Bell,  N. A. Besley,  
 J.-D. Chai,  A. Dreuw,  B. D. Dunietz,  T. R. Furlani,  S. R. Gwaltney,  
 C.-P. Hsu,  Y. Jung,  J. Kong,  D. S. Lambrecht,  W. Liang,  C. Ochsenfeld,  
 V. A. Rassolov,  L. V. Slipchenko,  J. E. Subotnik,  T. Van Voorhis,  
 J. M. Herbert,  A. I. Krylov,  P. M. W. Gill,  M. Head-Gordon

 Contributors to earlier versions of Q-Chem not listed above: 
 R. D. Adamson,  J. Baker,  E. F. C. Byrd,  A. K. Chakraborty,  C.-L. Cheng,  
 H. Dachsel,  R. J. Doerksen,  G. Hawkins,  A. Heyden,  S. Hirata,  
 G. Kedziora,  F. J. Keil,  C. Kelley,  P. P. Korambath,  W. Kurlancheek,  
 A. M. Lee,  M. S. Lee,  D. Liotard,  I. Lotan,  P. E. Maslen,  N. Nair,  
 D. Neuhauser,  R. Olson,  B. Peters,  J. Ritchie,  N. E. Schultz,  
 N. Shenvi,  A. C. Simmonett,  K. S. Thanthiriwatte,  Q. Wu,  W. Zhang

 Please cite Q-Chem as follows:
 Y. Shao et al., Mol. Phys. 113, 184-215 (2015)
 DOI: 10.1080/00268976.2014.952696

 Q-Chem 4.3.0 for Intel X86 Linux

 Parts of Q-Chem use Armadillo 5.200.1 (Boston Tea Smuggler).
 http://arma.sourceforge.net/

 Q-Chem begins on Wed Jan 25 15:51:03 2017  

Host: 
0

     Scratch files written to /scratch/qchem/qchem21970//
 Nov1815 1189b_ 19540  19532 5443   
 Parallel job on  1  processors
Processing $rem in /mnt/software/qchem/config/preferences.
 MEM_TOTAL  2000 

Checking the input file for inconsistencies... 	...done.

--------------------------------------------------------------
User input:
--------------------------------------------------------------
$molecule
0 1
C    -0.696126    -1.136419     0.000000
C     0.696126    -1.136419     0.000000
N    -1.417532     0.000000     0.000000
N     1.417532     0.000000     0.000000
C     0.696126     1.136419     0.000000
C    -0.696126     1.136419     0.000000
H     1.250625     2.067160     0.000000
H    -1.250625     2.067160     0.000000
H     1.250625    -2.067160     0.000000
H    -1.250625    -2.067160     0.000000
$end

$rem
exchange b3lyp
basis 6-31G*
sym_ignore true
cis_n_roots 30
cis_triplets false
$end

--------------------------------------------------------------
 ----------------------------------------------------------------
             Standard Nuclear Orientation (Angstroms)
    I     Atom           X                Y                Z
 ----------------------------------------------------------------
    1      C      -0.6961260000    -1.1364190000     0.0000000000
    2      C       0.6961260000    -1.1364190000     0.0000000000
    3      N      -1.4175320000     0.0000000000     0.0000000000
    4      N       1.4175320000     0.0000000000     0.0000000000
    5      C       0.6961260000     1.1364190000     0.0000000000
    6      C      -0.6961260000     1.1364190000     0.0000000000
    7      H       1.2506250000     2.0671600000     0.0000000000
    8      H      -1.2506250000     2.0671600000     0.0000000000
    9      H       1.2506250000    -2.0671600000     0.0000000000
   10      H      -1.2506250000    -2.0671600000     0.0000000000
 ----------------------------------------------------------------
 Nuclear Repulsion Energy =   207.9974042823 hartrees
 There are       21 alpha and       21 beta electrons
 Requested basis set is 6-31G(d)
 There are 32 shells and 98 basis functions

 Total QAlloc Memory Limit   2000 MB
 Mega-Array Size        61 MB
 MEM_STATIC part        62 MB

                       Distance Matrix (Angstroms)
             C (  1)   C (  2)   N (  3)   N (  4)   C (  5)   C (  6)
   C (  2)  1.392252
   N (  3)  1.346059  2.399791
   N (  4)  2.399791  1.346059  2.835064
   C (  5)  2.665363  2.272838  2.399791  1.346059
   C (  6)  2.272838  2.665363  1.346059  2.399791  1.392252
   H (  7)  3.748701  3.251213  3.375235  2.073887  1.083396  2.157804
   H (  8)  3.251213  3.748701  2.073887  3.375235  2.157804  1.083396
   H (  9)  2.157804  1.083396  3.375235  2.073887  3.251213  3.748701
   H ( 10)  1.083396  2.157804  2.073887  3.375235  3.748701  3.251213
             H (  7)   H (  8)   H (  9)
   H (  8)  2.501250
   H (  9)  4.134320  4.832065
   H ( 10)  4.832065  4.134320  2.501250
 
 tim1(1): 
  0.000000000000000E+000
 tim1(2): 
  0.000000000000000E+000
 A cutoff of  1.0D-11 yielded    513 shell pairs
 There are      4998 function pairs
 
 -------------------------------------------------------
 OpenMP Integral Computing Module                       
 Release: version 1.0, May 2013, Q-Chem Inc. Pittsburgh 
 -------------------------------------------------------
 Integral Job Info:
 Integral job number is                      11
 Integral operator is                         1
 short-range coefficients                     0
 long-range coefficients              100000000
 Omega coefficients                           0
 if combine SR and LR in K                    0
 Integral screening is                        0
 Integral computing path is                   2
 max size of driver memory is            800000
 size of driver memory is                593474
 size of scratch memory is              2260544
 max col of scratch BK array               1296
 max len of scratch array in speh3          155
 max len of scratch index in speh4           18
 max int batch size is                      520
 min int batch size is                       52
 fixed nKL is                                52
 max L of basis functions is                  2
 order of int derivative is                   0
 number of shells is                         32
 number of basis is                          98
 number of cartesian basis is                98
 number of contracted shell pairs           513
 number of primitive shell pairs           2277
 maxK2 (contraction) of shell pair           36
 max number of K2 of shell pair               1
 max number of CS2 of shell pair             58
 max number of PS2 of shell pair            348
 mem total for path MDJ                   28696
 -------------------------------------------------------
 Smallest overlap matrix eigenvalue = 1.40E-03

 Scale SEOQF with 1.000000e-01/1.000000e-01/1.000000e+00

 Standard Electronic Orientation quadrupole field applied
 Nucleus-field energy     =     0.0000000051 hartrees
 Guess from superposition of atomic densities
 Warning:  Energy on first SCF cycle will be non-variational
 A restricted hybrid HF-DFT SCF calculation will be
 performed using Pulay DIIS extrapolation
 Exchange:     0.2000 Hartree-Fock + 0.0800 Slater + 0.7200 B88
 Correlation:  0.1900 VWN1RPA + 0.8100 LYP
 Using SG-1 standard quadrature grid
 SCF converges when DIIS error is below 1.0E-08
 using 8 threads for integral computing 
 -------------------------------------------------------
 OpenMP BLAS3 based DFT computing Module                
 Release: version 1.0, May 2013, Q-Chem Inc. Pittsburgh 
 -------------------------------------------------------
 ---------------------------------------
  Cycle       Energy         DIIS Error
 ---------------------------------------
    1    -265.6254305727      8.22E-02
    2    -264.2699597086      6.00E-03
    3    -264.2721118033      6.27E-03
    4    -264.3140755736      1.65E-03
    5    -264.3166889824      4.22E-04
    6    -264.3168762025      5.74E-05
    7    -264.3168796518      2.19E-06
    8    -264.3168796581      4.88E-07
    9    -264.3168796583      3.96E-08
   10    -264.3168796582      8.60E-09 Convergence criterion met
 ---------------------------------------
 SCF time:  CPU 19.90 s  wall 3.52 s
 SCF   energy in the final basis set = -264.3168796582
 Total energy in the final basis set = -264.3168796582
 Direct TDDFT/TDA calculation will be performed
 Exchange:     0.2000 Hartree-Fock + 0.0800 Slater + 0.7200 B88
 Correlation:  0.1900 VWN1RPA + 0.8100 LYP
 Using SG-1 standard quadrature grid
 Singlet excitation energies requested
 CIS energy converged when residual is below 10e- 6
 ---------------------------------------------------
 Iter    Rts Conv    Rts Left    Ttl Dev     Max Dev
 ---------------------------------------------------
   1         0          30      0.041011    0.004207
   2         0          30      0.004322    0.000445
   3         0          30      0.000681    0.000089
   4        14          16      0.001031    0.000959
   5        27           3      0.000228    0.000217
   6        28           2      0.000325    0.000274
   7        28           2      0.000032    0.000022
   8        29           1      0.000009    0.000002
   9        30           0      0.000008    0.000001    Roots Converged
 ---------------------------------------------------
 
 
 ---------------------------------------------------
         TDDFT/TDA Excitation Energies              
 ---------------------------------------------------

 Excited state   1: excitation energy (eV) =    4.0840
    Total energy for state   1:   -264.166796500660
    Multiplicity: Singlet 
    Trans. Mom.:  0.0000 X   0.0000 Y  -0.2808 Z
    Strength   :  0.0079
    D( 21) --> V(  1) amplitude =  0.9981

 Excited state   2: excitation energy (eV) =    4.8022
    Total energy for state   2:   -264.140402841512
    Multiplicity: Singlet 
    Trans. Mom.:  0.0000 X   0.0000 Y   0.0000 Z
    Strength   :  0.0000
    D( 21) --> V(  2) amplitude =  0.9993

 Excited state   3: excitation energy (eV) =    5.6256
    Total energy for state   3:   -264.110143763814
    Multiplicity: Singlet 
    Trans. Mom.:  0.0000 X   0.7885 Y   0.0000 Z
    Strength   :  0.0857
    D( 18) --> V(  2) amplitude = -0.4520
    D( 20) --> V(  1) amplitude =  0.8853

 Excited state   4: excitation energy (eV) =    5.6698
    Total energy for state   4:   -264.108517349692
    Multiplicity: Singlet 
    Trans. Mom.:  0.0000 X   0.0000 Y   0.0000 Z
    Strength   :  0.0000
    D( 19) --> V(  1) amplitude =  0.9953

 Excited state   5: excitation energy (eV) =    6.4893
    Total energy for state   5:   -264.078402084124
    Multiplicity: Singlet 
    Trans. Mom.:  0.0000 X   0.0000 Y   0.0000 Z
    Strength   :  0.0000
    D( 19) --> V(  2) amplitude =  0.9989

 Excited state   6: excitation energy (eV) =    6.9738
    Total energy for state   6:   -264.060596240616
    Multiplicity: Singlet 
    Trans. Mom.:  0.5493 X   0.0000 Y   0.0000 Z
    Strength   :  0.0516
    D( 18) --> V(  1) amplitude =  0.5503
    D( 20) --> V(  2) amplitude =  0.8151

 Excited state   7: excitation energy (eV) =    7.7041
    Total energy for state   7:   -264.033759224448
    Multiplicity: Singlet 
    Trans. Mom.:  0.0000 X   0.0000 Y   0.0000 Z
    Strength   :  0.0000
    D( 17) --> V(  1) amplitude =  0.9973

 Excited state   8: excitation energy (eV) =    8.4236
    Total energy for state   8:   -264.007316596779
    Multiplicity: Singlet 
    Trans. Mom.:  0.0000 X   1.4759 Y   0.0000 Z
    Strength   :  0.4495
    D( 18) --> V(  2) amplitude =  0.8448
    D( 20) --> V(  1) amplitude =  0.3936
    D( 21) --> V(  5) amplitude = -0.2324

 Excited state   9: excitation energy (eV) =    8.4955
    Total energy for state   9:   -264.004675525064
    Multiplicity: Singlet 
    Trans. Mom.: -1.5695 X   0.0000 Y   0.0000 Z
    Strength   :  0.5127
    D( 18) --> V(  1) amplitude =  0.7620
    D( 19) --> V(  3) amplitude =  0.2436
    D( 20) --> V(  2) amplitude = -0.5146

 Excited state  10: excitation energy (eV) =    8.6260
    Total energy for state  10:   -263.999878872025
    Multiplicity: Singlet 
    Trans. Mom.:  0.0000 X   0.0000 Y  -0.2051 Z
    Strength   :  0.0089
    D( 17) --> V(  2) amplitude =  0.9968

 Excited state  11: excitation energy (eV) =    8.9547
    Total energy for state  11:   -263.987800856400
    Multiplicity: Singlet 
    Trans. Mom.:  0.0000 X   0.0000 Y   0.0000 Z
    Strength   :  0.0000
    D( 21) --> V(  4) amplitude =  0.9822

 Excited state  12: excitation energy (eV) =    8.9888
    Total energy for state  12:   -263.986548302282
    Multiplicity: Singlet 
    Trans. Mom.:  0.0000 X   0.0000 Y   0.0000 Z
    Strength   :  0.0000
    D( 16) --> V(  1) amplitude =  0.3841
    D( 21) --> V(  3) amplitude =  0.9160

 Excited state  13: excitation energy (eV) =    9.1422
    Total energy for state  13:   -263.980910591033
    Multiplicity: Singlet 
    Trans. Mom.:  0.0000 X   0.0000 Y   0.0000 Z
    Strength   :  0.0000
    D( 15) --> V(  1) amplitude =  0.9943

 Excited state  14: excitation energy (eV) =    9.5025
    Total energy for state  14:   -263.967668445468
    Multiplicity: Singlet 
    Trans. Mom.:  0.0000 X   0.0000 Y   0.0000 Z
    Strength   :  0.0000
    D( 20) --> V(  3) amplitude =  0.9886

 Excited state  15: excitation energy (eV) =    9.5814
    Total energy for state  15:   -263.964770203751
    Multiplicity: Singlet 
    Trans. Mom.:  0.0000 X   1.3938 Y   0.0000 Z
    Strength   :  0.4560
    D( 21) --> V(  5) amplitude =  0.9665

 Excited state  16: excitation energy (eV) =    9.6075
    Total energy for state  16:   -263.963811920706
    Multiplicity: Singlet 
    Trans. Mom.:  0.0000 X   0.0000 Y   0.0000 Z
    Strength   :  0.0000
    D( 16) --> V(  1) amplitude =  0.8444
    D( 18) --> V(  4) amplitude = -0.3159
    D( 21) --> V(  3) amplitude = -0.3729

 Excited state  17: excitation energy (eV) =    9.7779
    Total energy for state  17:   -263.957548546719
    Multiplicity: Singlet 
    Trans. Mom.:  0.0000 X   0.0000 Y   0.0000 Z
    Strength   :  0.0000
    D( 16) --> V(  2) amplitude =  0.7395
    D( 20) --> V(  4) amplitude = -0.6709

 Excited state  18: excitation energy (eV) =    9.9206
    Total energy for state  18:   -263.952302825861
    Multiplicity: Singlet 
    Trans. Mom.:  0.0000 X   0.0000 Y   0.0000 Z
    Strength   :  0.0000
    D( 15) --> V(  2) amplitude =  0.9785

 Excited state  19: excitation energy (eV) =    9.9799
    Total energy for state  19:   -263.950124132689
    Multiplicity: Singlet 
    Trans. Mom.:  0.0000 X   0.0000 Y  -0.0270 Z
    Strength   :  0.0002
    D( 20) --> V(  5) amplitude =  0.9936

 Excited state  20: excitation energy (eV) =   10.1331
    Total energy for state  20:   -263.944494707579
    Multiplicity: Singlet 
    Trans. Mom.:  0.2102 X   0.0000 Y   0.0000 Z
    Strength   :  0.0110
    D( 19) --> V(  3) amplitude = -0.3107
    D( 21) --> V(  6) amplitude =  0.9494

 Excited state  21: excitation energy (eV) =   10.4338
    Total energy for state  21:   -263.933444547298
    Multiplicity: Singlet 
    Trans. Mom.:  0.0000 X   0.0000 Y   0.0000 Z
    Strength   :  0.0000
    D( 19) --> V(  5) amplitude =  0.2414
    D( 21) --> V(  7) amplitude =  0.9617

 Excited state  22: excitation energy (eV) =   10.4467
    Total energy for state  22:   -263.932971245200
    Multiplicity: Singlet 
    Trans. Mom.:  0.0000 X   0.0000 Y   0.0000 Z
    Strength   :  0.0000
    D( 18) --> V(  4) amplitude = -0.2251
    D( 21) --> V(  8) amplitude =  0.9638

 Excited state  23: excitation energy (eV) =   10.6313
    Total energy for state  23:   -263.926184877605
    Multiplicity: Singlet 
    Trans. Mom.:  0.0000 X   0.0000 Y  -0.2923 Z
    Strength   :  0.0223
    D( 19) --> V(  4) amplitude =  0.9856

 Excited state  24: excitation energy (eV) =   10.7161
    Total energy for state  24:   -263.923068555595
    Multiplicity: Singlet 
    Trans. Mom.:  0.0000 X   0.0000 Y   0.0000 Z
    Strength   :  0.0000
    D( 14) --> V(  1) amplitude =  0.9260
    D( 18) --> V(  3) amplitude = -0.2346
    D( 20) --> V(  7) amplitude =  0.2551

 Excited state  25: excitation energy (eV) =   10.8088
    Total energy for state  25:   -263.919662605942
    Multiplicity: Singlet 
    Trans. Mom.:  0.0000 X   0.0000 Y   0.0000 Z
    Strength   :  0.0000
    D( 20) --> V(  6) amplitude =  0.9913

 Excited state  26: excitation energy (eV) =   10.8444
    Total energy for state  26:   -263.918355402833
    Multiplicity: Singlet 
    Trans. Mom.:  1.0013 X   0.0000 Y   0.0000 Z
    Strength   :  0.2664
    D( 19) --> V(  3) amplitude =  0.9114
    D( 21) --> V(  6) amplitude =  0.3038

 Excited state  27: excitation energy (eV) =   10.8761
    Total energy for state  27:   -263.917191231341
    Multiplicity: Singlet 
    Trans. Mom.:  0.0000 X   0.0000 Y   0.0000 Z
    Strength   :  0.0000
    D( 13) --> V(  1) amplitude = -0.9307
    D( 20) --> V(  8) amplitude =  0.3266

 Excited state  28: excitation energy (eV) =   10.9088
    Total energy for state  28:   -263.915987627760
    Multiplicity: Singlet 
    Trans. Mom.:  0.0000 X   0.0000 Y   0.0000 Z
    Strength   :  0.0000
    D( 14) --> V(  1) amplitude =  0.2325
    D( 18) --> V(  3) amplitude =  0.9683

 Excited state  29: excitation energy (eV) =   10.9807
    Total energy for state  29:   -263.913345077432
    Multiplicity: Singlet 
    Trans. Mom.:  0.0000 X   0.0000 Y   0.0000 Z
    Strength   :  0.0000
    D( 16) --> V(  2) amplitude = -0.4470
    D( 19) --> V(  5) amplitude =  0.6540
    D( 20) --> V(  4) amplitude = -0.5267
    D( 21) --> V(  7) amplitude = -0.2474

 Excited state  30: excitation energy (eV) =   11.1168
    Total energy for state  30:   -263.908344621073
    Multiplicity: Singlet 
    Trans. Mom.:  0.0000 X   0.0000 Y   0.0000 Z
    Strength   :  0.0000
    D( 13) --> V(  1) amplitude = -0.2948
    D( 14) --> V(  2) amplitude =  0.2524
    D( 20) --> V(  8) amplitude = -0.9172
 
 ---------------------------------------------------
  Timing summary (seconds)
  CPU time         53.69s
  System time       0.00s
  Wall time        37.12s
 
 --------------------------------------------------------------
 
                    Orbital Energies (a.u.)
 --------------------------------------------------------------
 
 Alpha MOs
 -- Occupied --
-14.356 -14.356 -10.238 -10.238 -10.237 -10.237  -0.981  -0.908
 -0.781  -0.665  -0.657  -0.529  -0.515  -0.494  -0.443  -0.425
 -0.391  -0.329  -0.312  -0.279  -0.254
 -- Virtual --
 -0.055  -0.024   0.112   0.126   0.131   0.156   0.169   0.179
  0.289   0.315   0.322   0.413   0.475   0.499   0.505   0.541
  0.568   0.583   0.604   0.620   0.622   0.641   0.642   0.676
  0.795   0.808   0.831   0.837   0.851   0.856   0.870   0.916
  0.943   0.993   1.050   1.092   1.101   1.235   1.240   1.318
  1.363   1.471   1.475   1.489   1.503   1.503   1.676   1.727
  1.779   1.845   1.854   1.961   2.017   2.103   2.156   2.197
  2.201   2.229   2.270   2.322   2.409   2.490   2.544   2.568
  2.675   2.699   2.719   2.721   2.816   3.050   3.354   3.867
  4.065   4.120   4.182   4.308   4.486
 --------------------------------------------------------------
 
          Ground-State Mulliken Net Atomic Charges

     Atom                 Charge (a.u.)
  ----------------------------------------
      1 C                     0.035297
      2 C                     0.035297
      3 N                    -0.378549
      4 N                    -0.378549
      5 C                     0.035297
      6 C                     0.035297
      7 H                     0.153978
      8 H                     0.153978
      9 H                     0.153978
     10 H                     0.153978
  ----------------------------------------
  Sum of atomic charges =     0.000000

 -----------------------------------------------------------------
                    Cartesian Multipole Moments
 -----------------------------------------------------------------
    Charge (ESU x 10^10)
                 0.0000
    Dipole Moment (Debye)
         X       0.0000      Y       0.0000      Z       0.0000
       Tot       0.0000
    Quadrupole Moments (Debye-Ang)
        XX     -40.4748     XY       0.0000     YY     -26.6520
        XZ       0.0000     YZ       0.0000     ZZ     -35.2028
    Octopole Moments (Debye-Ang^2)
       XXX       0.0000    XXY       0.0000    XYY       0.0000
       YYY       0.0000    XXZ       0.0000    XYZ       0.0000
       YYZ       0.0000    XZZ       0.0000    YZZ       0.0000
       ZZZ       0.0000
    Hexadecapole Moments (Debye-Ang^3)
      XXXX    -291.0723   XXXY       0.0000   XXYY     -70.6465
      XYYY       0.0000   YYYY    -230.6797   XXXZ       0.0000
      XXYZ       0.0000   XYYZ       0.0000   YYYZ       0.0000
      XXZZ     -49.0590   XYZZ       0.0000   YYZZ     -52.0286
      XZZZ       0.0000   YZZZ       0.0000   ZZZZ     -33.6147
 -----------------------------------------------------------------
Archival summary:
1\1\tp-linux1\SP\ProcedureUnspecified\6-31G*\244\thomas\WedJan2515:51:442017WedJan2515:51:442017\0\\#,ProcedureUnspecified,6-31G*,\\0,1\N\C,1,1.34606\H,2,1.0834,1,116.808\C,1,1.34606,2,115.185,3,-180,0\H,4,1.0834,1,116.808,2,-180,0\C,2,1.39225,1,122.408,3,-180,0\H,6,1.0834,2,120.785,1,-180,0\N,6,1.34606,2,122.408,1,0,0\C,8,1.34606,6,115.185,2,0,0\H,9,1.0834,8,116.808,6,-180,0\\\@

 Total job time:  41.21s(wall), 75.52s(cpu) 
 Wed Jan 25 15:51:44 2017

        *************************************************************
        *                                                           *
        *  Thank you very much for using Q-Chem.  Have a nice day.  *
        *                                                           *
        *************************************************************


0 sent ACK to 0 
now end server 0 ... 
cleanup process ... done
remove work dirs /scratch/qchem/qchem21970.0 -- /scratch/qchem/qchem21970.0
rm -rf /scratch/qchem/qchem21970.0
rm -rf /scratch/qchem/qchem21970
