You are running Q-Chem version: 4.3

#
# job setting
#
local host:  tp-linux1
current dir: /home/thomas/CODE_displace_coords/qchem
input file:  cvs-adc-gs.inp
output file: 
nprocs     : 1
nthreads   : 8
#
# qchem installation setting
#
QC:          /mnt/software/qchem
QCAUX:       /mnt/software/qchem/qcaux
QCPROG:      /mnt/software/qchem/exe/qcprog.exe
QCPROG_S:    /mnt/software/qchem/exe/qcprog.exe_s
PARALLEL:    -DPARALLEL
QCMPI:       mpich
#
# qchem directory setting
#
qcrun:       qchem10917
QCSCRATCH:   /scratch/qchem
QCLOCALSCR:  
QCTMPDIR:    /scratch/qchem
QCFILEPREF:  /scratch/qchem/qchem10917
QCSAVEDIR:   
workdirs:    /scratch/qchem/qchem10917
workdir0:    /scratch/qchem/qchem10917
partmpdirs =  
#
# parallel setting
#
QCRSH:           ssh
QCMPI:           mpich
QCMPIRUN:        /mnt/software/qchem/bin/mpi/mpirun_qchem
QCMACHINEFILE:   /mnt/software/qchem/bin/mpi/machines
127.0.1.1 32

#
# env setting
#
exported envs:   QC QCAUX QCSCRATCH QCRUNNAME QCFILEPREF QCPROG QCPROG_S GUIFILE

Running Job 1 of 1 cvs-adc-gs.inp
qchem cvs-adc-gs.inp_10917.0 /scratch/qchem/qchem10917/ 1
/mnt/software/qchem/bin/mpi/mpirun_qchem -machinefile /mnt/software/qchem/bin/mpi/machines -np 1 /mnt/software/qchem/exe/qcprog.exe cvs-adc-gs.inp_10917.0 /scratch/qchem/qchem10917/

Process 0 of 1 is on tp-linux1 - thread support 0
initial socket setup ...start
initial socket setup ...done 
now start server 0 ... 

cmd = ssh tp-linux1 /mnt/software/qchem/bin/get_hostid 1234118189 > /scratch/qchem/qchem10917/lic.dat
                  Welcome to Q-Chem
     A Quantum Leap Into The Future Of Chemistry


 Q-Chem 4.3, Q-Chem, Inc., Pleasanton, CA (2015)

 Y. Shao,  Z. Gan,  E. Epifanovsky,  A. T. B. Gilbert,  M. Wormit,  
 J. Kussmann,  A. W. Lange,  A. Behn,  J. Deng,  X. Feng,  D. Ghosh,  
 M. Goldey,  P. R. Horn,  L. D. Jacobson,  I. Kaliman,  R. Z. Khaliullin,  
 T. Kus,  A. Landau,  J. Liu,  E. I. Proynov,  Y. M. Rhee,  R. M. Richard,  
 M. A. Rohrdanz,  R. P. Steele,  E. J. Sundstrom,  H. L. Woodcock III,  
 P. M. Zimmerman,  D. Zuev,  B. Albrecht,  E. Alguire,  B. Austin,  
 S. A. Baeppler,  G. J. O. Beran,  Y. A. Bernard,  E. Berquist,  
 K. Brandhorst,  K. B. Bravaya,  S. T. Brown,  D. Casanova,  C.-M. Chang,  
 Y. Chen,  S. H. Chien,  K. D. Closser,  D. L. Crittenden,  M. Diedenhofen,  
 R. A. DiStasio Jr.,  H. Do,  A. D. Dutoi,  R. G. Edgar,  P.-T. Fang,  
 S. Fatehi,  Q. Feng,  L. Fusti-Molnar,  A. Ghysels,  
 A. Golubeva-Zadorozhnaya,  J. Gomes,  A. Gunina,  M. W. D. Hanson-Heine,  
 P. H. P. Harbach,  A. W. Hauser,  E. G. Hohenstein,  Z. C. Holden,  K. Hui,  
 T.-C. Jagau,  H. Ji,  B. Kaduk,  K. Khistyaev,  Jaehoon Kim,  Jihan Kim,  
 R. A. King,  P. Klunzinger,  D. Kosenkov,  T. Kowalczyk,  C. M. Krauter,  
 K. U. Lao,  A. Laurent,  K. V. Lawler,  S. Lehtola,  S. V. Levchenko,  
 C. Y. Lin,  Y.-S. Lin,  F. Liu,  E. Livshits,  R. C. Lochan,  A. Luenser,  
 P. Manohar,  S. F. Manzer,  S.-P. Mao,  N. Mardirossian,  A. V. Marenich,  
 L. A. Martinez-Martinez,  S. A. Maurer,  N. J. Mayhall,  K. Nanda,  
 C. M. Oana,  R. Olivares-Amaya,  D. P. O'Neill,  J. A. Parkhill,  
 T. M. Perrine,  R. Peverati,  P. A. Pieniazek,  F. Plasser,  A. Prociuk,  
 D. R. Rehn,  E. Rosta,  N. J. Russ,  N. Sergueev,  S. M. Sharada,  
 S. Sharma,  D. W. Small,  A. Sodt,  T. Stauch,  T. Stein,  D. Stuck,  
 Y.-C. Su,  A. J. W. Thom,  T. Tsuchimochi,  L. Vogt,  O. Vydrov,  T. Wang,  
 M. A. Watson,  J. Wenzel,  A. White,  C. F. Williams,  V. Vanovschi,  
 S. Yeganeh,  S. R. Yost,  Z.-Q. You,  I. Y. Zhang,  X. Zhang,  Y. Zhao,  
 B. R. Brooks,  G. K. L. Chan,  D. M. Chipman,  C. J. Cramer,  
 W. A. Goddard III,  M. S. Gordon,  W. J. Hehre,  A. Klamt,  
 H. F. Schaefer III,  M. W. Schmidt,  C. D. Sherrill,  D. G. Truhlar,  
 A. Warshel,  X. Xu,  A. Aspuru-Guzik,  R. Baer,  A. T. Bell,  N. A. Besley,  
 J.-D. Chai,  A. Dreuw,  B. D. Dunietz,  T. R. Furlani,  S. R. Gwaltney,  
 C.-P. Hsu,  Y. Jung,  J. Kong,  D. S. Lambrecht,  W. Liang,  C. Ochsenfeld,  
 V. A. Rassolov,  L. V. Slipchenko,  J. E. Subotnik,  T. Van Voorhis,  
 J. M. Herbert,  A. I. Krylov,  P. M. W. Gill,  M. Head-Gordon

 Contributors to earlier versions of Q-Chem not listed above: 
 R. D. Adamson,  J. Baker,  E. F. C. Byrd,  A. K. Chakraborty,  C.-L. Cheng,  
 H. Dachsel,  R. J. Doerksen,  G. Hawkins,  A. Heyden,  S. Hirata,  
 G. Kedziora,  F. J. Keil,  C. Kelley,  P. P. Korambath,  W. Kurlancheek,  
 A. M. Lee,  M. S. Lee,  D. Liotard,  I. Lotan,  P. E. Maslen,  N. Nair,  
 D. Neuhauser,  R. Olson,  B. Peters,  J. Ritchie,  N. E. Schultz,  
 N. Shenvi,  A. C. Simmonett,  K. S. Thanthiriwatte,  Q. Wu,  W. Zhang

 Please cite Q-Chem as follows:
 Y. Shao et al., Mol. Phys. 113, 184-215 (2015)
 DOI: 10.1080/00268976.2014.952696

 Q-Chem 4.3.0 for Intel X86 Linux

 Parts of Q-Chem use Armadillo 5.200.1 (Boston Tea Smuggler).
 http://arma.sourceforge.net/

 Q-Chem begins on Thu Jan 26 15:09:08 2017  

Host: 
0

     Scratch files written to /scratch/qchem/qchem10917//
 Nov1815 1189b_ 19540  19532 5443   
 Parallel job on  1  processors
Processing $rem in /mnt/software/qchem/config/preferences.
 MEM_TOTAL  2000 

Checking the input file for inconsistencies... 	...done.

--------------------------------------------------------------
User input:
--------------------------------------------------------------
$comment
job3 - cvs-adc(2)-x calculation with mom to prevent collapse to ground state
$end

$molecule
0 1
C    -0.696126    -1.136419     0.000000
C     0.696126    -1.136419     0.000000
N    -1.417532     0.000000     0.000000
N     1.417532     0.000000     0.000000
C     0.696126     1.136419     0.000000
C    -0.696126     1.136419     0.000000
H     1.250625     2.067160     0.000000
H    -1.250625     2.067160     0.000000
H     1.250625    -2.067160     0.000000
H    -1.250625    -2.067160     0.000000
$end

$rem
mem_total 3000
mem_static 1500
sym_ignore true
method cvs-adc(2)-x
basis 6-31G*
ee_singlets 20
cc_rest_occ 1                  !only excitations from the 1st orbital (N 1s)
unrestricted  true
max_scf_cycles 200
$end

--------------------------------------------------------------
 ----------------------------------------------------------------
             Standard Nuclear Orientation (Angstroms)
    I     Atom           X                Y                Z
 ----------------------------------------------------------------
    1      C      -0.6961260000    -1.1364190000     0.0000000000
    2      C       0.6961260000    -1.1364190000     0.0000000000
    3      N      -1.4175320000     0.0000000000     0.0000000000
    4      N       1.4175320000     0.0000000000     0.0000000000
    5      C       0.6961260000     1.1364190000     0.0000000000
    6      C      -0.6961260000     1.1364190000     0.0000000000
    7      H       1.2506250000     2.0671600000     0.0000000000
    8      H      -1.2506250000     2.0671600000     0.0000000000
    9      H       1.2506250000    -2.0671600000     0.0000000000
   10      H      -1.2506250000    -2.0671600000     0.0000000000
 ----------------------------------------------------------------
 Nuclear Repulsion Energy =   207.9974042823 hartrees
 There are       21 alpha and       21 beta electrons
 Requested basis set is 6-31G(d)
 There are 32 shells and 98 basis functions

 Total QAlloc Memory Limit   3000 MB
 Mega-Array Size      1467 MB
 MEM_STATIC part      1500 MB

                       Distance Matrix (Angstroms)
             C (  1)   C (  2)   N (  3)   N (  4)   C (  5)   C (  6)
   C (  2)  1.392252
   N (  3)  1.346059  2.399791
   N (  4)  2.399791  1.346059  2.835064
   C (  5)  2.665363  2.272838  2.399791  1.346059
   C (  6)  2.272838  2.665363  1.346059  2.399791  1.392252
   H (  7)  3.748701  3.251213  3.375235  2.073887  1.083396  2.157804
   H (  8)  3.251213  3.748701  2.073887  3.375235  2.157804  1.083396
   H (  9)  2.157804  1.083396  3.375235  2.073887  3.251213  3.748701
   H ( 10)  1.083396  2.157804  2.073887  3.375235  3.748701  3.251213
             H (  7)   H (  8)   H (  9)
   H (  8)  2.501250
   H (  9)  4.134320  4.832065
   H ( 10)  4.832065  4.134320  2.501250
 
 tim1(1): 
  0.000000000000000E+000
 tim1(2): 
  0.000000000000000E+000
 A cutoff of  1.0D-11 yielded    513 shell pairs
 There are      4998 function pairs
 
 -------------------------------------------------------
 OpenMP Integral Computing Module                       
 Release: version 1.0, May 2013, Q-Chem Inc. Pittsburgh 
 -------------------------------------------------------
 Integral Job Info:
 Integral job number is                      11
 Integral operator is                         1
 short-range coefficients                     0
 long-range coefficients              100000000
 Omega coefficients                           0
 if combine SR and LR in K                    0
 Integral screening is                        0
 Integral computing path is                   2
 max size of driver memory is            800000
 size of driver memory is                593474
 size of scratch memory is              2260544
 max col of scratch BK array               1296
 max len of scratch array in speh3          155
 max len of scratch index in speh4           18
 max int batch size is                      520
 min int batch size is                       52
 fixed nKL is                                52
 max L of basis functions is                  2
 order of int derivative is                   0
 number of shells is                         32
 number of basis is                          98
 number of cartesian basis is                98
 number of contracted shell pairs           513
 number of primitive shell pairs           2277
 maxK2 (contraction) of shell pair           36
 max number of K2 of shell pair               1
 max number of CS2 of shell pair             58
 max number of PS2 of shell pair            348
 mem total for path MDJ                   28696
 -------------------------------------------------------
 Smallest overlap matrix eigenvalue = 1.40E-03

 Scale SEOQF with 1.000000e-01/1.000000e-01/1.000000e+00

 Standard Electronic Orientation quadrupole field applied
 Nucleus-field energy     =     0.0000000051 hartrees
 Guess from superposition of atomic densities
 Warning:  Energy on first SCF cycle will be non-variational
 An unrestricted Hartree-Fock SCF calculation will be
 performed using Pulay DIIS extrapolation
 SCF converges when DIIS error is below 1.0E-08
 using 8 threads for integral computing 
 ---------------------------------------
  Cycle       Energy         DIIS Error
 ---------------------------------------
    1    -264.8351357935      8.71E-02
    2    -262.6061640821      6.65E-03
    3    -262.6694982842      2.72E-03
    4    -262.6774664939      1.10E-03
    5    -262.6791955029      2.02E-04
    6    -262.6792803468      7.07E-05
    7    -262.6792977049      2.50E-05
    8    -262.6792997722      3.90E-06
    9    -262.6792998241      6.08E-07
   10    -262.6792998251      9.95E-08
   11    -262.6792998251      2.01E-08
   12    -262.6792998248      3.05E-09 Convergence criterion met
 ---------------------------------------
 <S^2> = 0.0000
 SCF time:  CPU 16.50 s  wall 3.09 s
 SCF   energy in the final basis set = -262.6792998248
 Total energy in the final basis set = -262.6792998248
================================================================================
|                                                                              |
|                                 A D C  M A N                                 |
|                                                                              |
 ------------------------------------------------------------------------------ 
|                                                                              |
| Components:                                                                  |
|                                                                              |
| - libvmm - 1.2-release                                                       |
|   Authors:                                                                   |
|   Evgeny Epifanovsky, Ilya Kaliman                                           |
|                                                                              |
| - libtensor - 2.4-trunk                                                      |
|   Authors:                                                                   |
|   Evgeny Epifanovsky, Michael Wormit, Dmitry Zuev, Sam Manzer                |
|                                                                              |
| - libwfa - 1.1-beta                                                          |
|   Authors:                                                                   |
|   Felix Plasser, Stefanie Baeppler, Benjamin Thomitzni, Michael Wormit       |
|                                                                              |
| - libadc - 1.0-beta                                                          |
|   Authors:                                                                   |
|   Michael Wormit, Philipp H. P. Harbach, Caroline Krauter, Dirk Rehn,        |
|   Matthias Schneider, Jan Wenzel                                             |
|                                                                              |
| - adcman - 2.4-beta                                                          |
|   Authors:                                                                   |
|   Michael Wormit, Philipp H. P. Harbach, Caroline Krauter, Dirk Rehn,        |
|   Jan Wenzel, Andreas Dreuw                                                  |
|                                                                              |
| Authors of earlier versions of ADCMAN:                                       |
| Andreas Dreuw, Jan Hendrik Starcke, Dirk Rehn, Michael Wormit                |
|                                                                              |
================================================================================

 
 Alpha MOs, Unrestricted
 -- Occupied --                  
-15.600 -15.600 -11.287 -11.287 -11.286 -11.286  -1.301  -1.213
  1 A     2 A     3 A     4 A     5 A     6 A     7 A     8 A                  
 -1.052  -0.902  -0.883  -0.724  -0.698  -0.677  -0.610  -0.568
  9 A    10 A    11 A    12 A    13 A    14 A    15 A    16 A                  
 -0.547  -0.496  -0.428  -0.411  -0.358
 17 A    18 A    19 A    20 A    21 A                                          
 -- Virtual --                   
  0.091   0.127   0.256   0.278   0.303   0.316   0.336   0.345
 22 A    23 A    24 A    25 A    26 A    27 A    28 A    29 A                  
  0.467   0.493   0.499   0.616   0.683   0.708   0.724   0.733
 30 A    31 A    32 A    33 A    34 A    35 A    36 A    37 A                  
  0.792   0.817   0.823   0.840   0.852   0.881   0.907   0.959
 38 A    39 A    40 A    41 A    42 A    43 A    44 A    45 A                  
  1.066   1.067   1.073   1.073   1.086   1.106   1.138   1.174
 46 A    47 A    48 A    49 A    50 A    51 A    52 A    53 A                  
  1.208   1.242   1.270   1.345   1.354   1.480   1.492   1.549
 54 A    55 A    56 A    57 A    58 A    59 A    60 A    61 A                  
  1.628   1.735   1.748   1.771   1.782   1.783   1.930   2.021
 62 A    63 A    64 A    65 A    66 A    67 A    68 A    69 A                  
  2.072   2.148   2.162   2.291   2.350   2.416   2.473   2.520
 70 A    71 A    72 A    73 A    74 A    75 A    76 A    77 A                  
  2.531   2.549   2.594   2.654   2.737   2.823   2.874   2.915
 78 A    79 A    80 A    81 A    82 A    83 A    84 A    85 A                  
  3.036   3.045   3.072   3.087   3.180   3.426   3.732   4.284
 86 A    87 A    88 A    89 A    90 A    91 A    92 A    93 A                  
  4.486   4.541   4.602   4.729   4.907
 94 A    95 A    96 A    97 A    98 A                                          
 
 Beta MOs, Unrestricted
 -- Occupied --                  
-15.600 -15.600 -11.287 -11.287 -11.286 -11.286  -1.301  -1.213
  1 A     2 A     3 A     4 A     5 A     6 A     7 A     8 A                  
 -1.052  -0.902  -0.883  -0.724  -0.698  -0.677  -0.610  -0.568
  9 A    10 A    11 A    12 A    13 A    14 A    15 A    16 A                  
 -0.547  -0.496  -0.428  -0.411  -0.358
 17 A    18 A    19 A    20 A    21 A                                          
 -- Virtual --                   
  0.091   0.127   0.256   0.278   0.303   0.316   0.336   0.345
 22 A    23 A    24 A    25 A    26 A    27 A    28 A    29 A                  
  0.467   0.493   0.499   0.616   0.683   0.708   0.724   0.733
 30 A    31 A    32 A    33 A    34 A    35 A    36 A    37 A                  
  0.792   0.817   0.823   0.840   0.852   0.881   0.907   0.959
 38 A    39 A    40 A    41 A    42 A    43 A    44 A    45 A                  
  1.066   1.067   1.073   1.073   1.086   1.106   1.138   1.174
 46 A    47 A    48 A    49 A    50 A    51 A    52 A    53 A                  
  1.208   1.242   1.270   1.345   1.354   1.480   1.492   1.549
 54 A    55 A    56 A    57 A    58 A    59 A    60 A    61 A                  
  1.628   1.735   1.748   1.771   1.782   1.783   1.930   2.021
 62 A    63 A    64 A    65 A    66 A    67 A    68 A    69 A                  
  2.072   2.148   2.162   2.291   2.350   2.416   2.473   2.520
 70 A    71 A    72 A    73 A    74 A    75 A    76 A    77 A                  
  2.531   2.549   2.594   2.654   2.737   2.823   2.874   2.915
 78 A    79 A    80 A    81 A    82 A    83 A    84 A    85 A                  
  3.036   3.045   3.072   3.087   3.180   3.426   3.732   4.284
 86 A    87 A    88 A    89 A    90 A    91 A    92 A    93 A                  
  4.486   4.541   4.602   4.729   4.907
 94 A    95 A    96 A    97 A    98 A                                          
 

--------------------------------------------------------------------------------
                                   HF Summary                                   
--------------------------------------------------------------------------------
  Energy:                                                 -262.6792998248 a.u.
  Dip. moment [a.u.]:                  [   0.000000,    0.000000,    0.000000]
  Total dipole [Debye]:                                               0.000000
  <r^2> [a.u.]:                        [ 195.209066,  191.065208,   27.012692]
  Total <r^2> [a.u.]:                                               413.286966
--------------------------------------------------------------------------------

--------------------------------------------------------------------------------
                                 MP(2) Summary                                  
--------------------------------------------------------------------------------
  Energy contribution:                                      -0.8466337872 a.u.
  Total energy:                                           -263.5259336120 a.u.
  Dip. moment [a.u.]:                  [  -0.000000,    0.000000,    0.000000]
  Total dipole [Debye]:                                               0.000000
  <r^2> [a.u.]:                        [ 194.617075,  191.040852,   26.489140]
  Total <r^2> [a.u.]:                                               412.147067
--------------------------------------------------------------------------------
  Starting Davidson ... 
--------------------------------------------------------------------------------
   It NVec Conv  Avg. Norm  Max. Norm  Conv. states           Remark
--------------------------------------------------------------------------------
        20    0  2.266e-01  1.048e+00 15.3367 n n n n n n n n Guess.
    1   40    0  9.804e-02  7.707e-01 15.0308 n n n n n n n n 
    2   60    0  3.968e-02  4.196e-01 15.0078 n n n n n n n n 
    3   80    0  1.508e-02  1.493e-01 15.0059 n n n n n n n n 
    4  100    0  7.283e-03  7.994e-02 15.0057 n n n n n n n n 
    5   40    0  4.097e-03  3.973e-02 15.0057 n n n n n n n n Subspace collapsed.
    6   60    0  3.187e-03  3.382e-02 15.0057 n n n n n n n n 
    7   80    0  1.580e-02  3.153e-01 15.0057 n n n n n n n n 
    8  100    0  1.036e-02  1.701e-01 15.0057 n n n n n n n n 
    9   40    0  5.007e-03  8.152e-02 15.0057 n n n n n n n n Subspace collapsed.
   10   60    0  4.218e-03  6.790e-02 15.0057 n n n n n n n n 
   11   80    0  5.584e-03  9.627e-02 15.0057 n n n n n n n n 
   12  100    0  6.714e-03  9.160e-02 15.0057 n n n n n n n n 
   13   40    4  2.753e-03  3.681e-02 15.0057 y y y y n n n n Subspace collapsed.
   14   60    4  1.377e-03  1.977e-02 15.0057 y y y y n n n n 
   15   80    6  9.566e-03  1.911e-01 15.0057 y y y y n n n y 
   16  100    8  3.652e-03  7.270e-02 15.0057 y y y y n n y y 
   17   40    8  1.522e-03  3.005e-02 15.0057 y y y y n n y y Subspace collapsed.
   18   60    9  5.165e-04  8.517e-03 15.0057 y y y y y n y y 
   19   80   12  2.352e-04  3.541e-03 15.0057 y y y y y y y y 
   20  100   12  1.453e-04  2.688e-03 15.0057 y y y y y y y y 
   21   40   13  1.089e-04  2.131e-03 15.0057 y y y y y y y y Subspace collapsed.
   22   60   14  5.139e-05  1.007e-03 15.0057 y y y y y y y y 
   23   80   15  2.433e-05  4.760e-04 15.0057 y y y y y y y y 
   24  100   15  1.304e-05  2.559e-04 15.0057 y y y y y y y y 
   25   40   14  1.496e-02  2.993e-01 15.0057 y y y y y y y y Subspace collapsed.
   26   59   14  6.635e-03  1.327e-01 15.0057 y y y y y y y y 
   27   77   16  3.075e-03  6.150e-02 15.0057 y y y y y y y y 
   28   95   16  9.530e-04  1.906e-02 15.0057 y y y y y y y y 
   29  100   16  9.530e-04  1.906e-02 15.0057 y y y y y y y y 
   30   36   16  2.947e-04  5.894e-03 15.0057 y y y y y y y y Subspace collapsed.
   31   52   17  9.471e-05  1.894e-03 15.0057 y y y y y y y y 
   32   68   17  4.062e-05  8.122e-04 15.0057 y y y y y y y y 
   33   83   17  2.067e-05  4.132e-04 15.0057 y y y y y y y y 
   34   97   17  9.147e-06  1.826e-04 15.0057 y y y y y y y y 
   35   97   17  9.147e-06  1.826e-04 15.0057 y y y y y y y y 
   36  100   17  9.145e-06  1.826e-04 15.0057 y y y y y y y y 
   37   32   17  4.717e-06  9.413e-05 15.0057 y y y y y y y y Subspace collapsed.
   38   43   17  2.444e-06  4.832e-05 15.0057 y y y y y y y y 
   39   54   17  1.364e-06  2.641e-05 15.0057 y y y y y y y y 
   40   65   17  5.865e-07  1.054e-05 15.0057 y y y y y y y y 
   41   74   17  3.731e-07  6.530e-06 15.0057 y y y y y y y y 
   42   83   17  2.272e-07  3.995e-06 15.0057 y y y y y y y y 
   43   92   19  1.038e-07  1.741e-06 15.0057 y y y y y y y y 
   44  100   20  4.322e-08  6.814e-07 15.0057 y y y y y y y y Converged.
--------------------------------------------------------------------------------
  Davidson Summary: 
 ------------------------------------------------------------
  State  0: excitation energy =  15.0057 a.u.   (converged)
  State  1: excitation energy =  15.0307 a.u.   (converged)
  State  2: excitation energy =  15.0829 a.u.   (converged)
  State  3: excitation energy =  15.0865 a.u.   (converged)
  State  4: excitation energy =  15.2091 a.u.   (converged)
  State  5: excitation energy =  15.2215 a.u.   (converged)
  State  6: excitation energy =  15.2558 a.u.   (converged)
  State  7: excitation energy =  15.2626 a.u.   (converged)
  State  8: excitation energy =  15.2699 a.u.   (converged)
  State  9: excitation energy =  15.2849 a.u.   (converged)
  State 10: excitation energy =  15.2851 a.u.   (converged)
  State 11: excitation energy =  15.2880 a.u.   (converged)
  State 12: excitation energy =  15.2927 a.u.   (converged)
  State 13: excitation energy =  15.2930 a.u.   (converged)
  State 14: excitation energy =  15.3126 a.u.   (converged)
  State 15: excitation energy =  15.3158 a.u.   (converged)
  State 16: excitation energy =  15.3197 a.u.   (converged)
  State 17: excitation energy =  15.3217 a.u.   (converged)
  State 18: excitation energy =  15.3533 a.u.   (converged)
  State 19: excitation energy =  15.3675 a.u.   (converged)
 ------------------------------------------------------------


--------------------------------------------------------------------------------
                             Excited State Summary
--------------------------------------------------------------------------------

  Excited state  1 (A)                                             [converged]
  ----------------------------------------------------------------------------
  Term symbol:  2 (-) A                                     R^2 =  6.74638e-13

  Total energy:                                           -248.5202062419 a.u.
  Excitation energy:                                             408.326608 eV

  Osc. strength:                                                      0.000000
  Trans. dip. moment [a.u.]:           [  -0.000000,    0.000000,    0.000000]
  <i|r^2|0> [a.u.]:                    [   0.000000,    0.000000,    0.000000]

  V1^2 = 0.8627, V2^2 = 0.1373

  Important amplitudes:
     core i     occ j      vir a      vir b          v   
    ------------------------------------------------------
     1 (A) A              22 (A) A                -0.6491
     1 (A) B              22 (A) B                 0.6491
    ------------------------------------------------------
  ----------------------------------------------------------------------------


  Excited state  2 (A)                                             [converged]
  ----------------------------------------------------------------------------
  Term symbol:  3 (-) A                                     R^2 =  1.97224e-13

  Total energy:                                           -248.4952260632 a.u.
  Excitation energy:                                             409.006353 eV

  Osc. strength:                                                      0.000000
  Trans. dip. moment [a.u.]:           [   0.000000,   -0.000000,    0.000000]
  <i|r^2|0> [a.u.]:                    [   0.000000,   -0.000000,   -0.000000]

  V1^2 = 0.8623, V2^2 = 0.1377

  Important amplitudes:
     core i     occ j      vir a      vir b          v   
    ------------------------------------------------------
     1 (A) B              22 (A) B                 0.6521
     1 (A) A              22 (A) A                 0.6521
    ------------------------------------------------------
  ----------------------------------------------------------------------------


  Excited state  3 (A)                                             [converged]
  ----------------------------------------------------------------------------
  Term symbol:  4 (-) A                                     R^2 =  5.92489e-14

  Total energy:                                           -248.4430713018 a.u.
  Excitation energy:                                             410.425557 eV

  Osc. strength:                                                      0.000000
  Trans. dip. moment [a.u.]:           [   0.000000,   -0.000000,   -0.000000]
  <i|r^2|0> [a.u.]:                    [   0.000000,   -0.000000,   -0.000000]

  V1^2 = 0.8044, V2^2 = 0.1956

  Important amplitudes:
     core i     occ j      vir a      vir b          v   
    ------------------------------------------------------
     1 (A) B              23 (A) B                -0.6317
     1 (A) A              23 (A) A                -0.6317
    ------------------------------------------------------
  ----------------------------------------------------------------------------


  Excited state  4 (A)                                             [converged]
  ----------------------------------------------------------------------------
  Term symbol:  5 (-) A                                     R^2 =  7.56556e-13

  Total energy:                                           -248.4394035876 a.u.
  Excitation energy:                                             410.525360 eV

  Osc. strength:                                                      0.000000
  Trans. dip. moment [a.u.]:           [  -0.000000,   -0.000000,    0.000000]
  <i|r^2|0> [a.u.]:                    [  -0.000000,   -0.000000,   -0.000000]

  V1^2 = 0.8072, V2^2 = 0.1928

  Important amplitudes:
     core i     occ j      vir a      vir b          v   
    ------------------------------------------------------
     1 (A) A              23 (A) A                 0.6328
     1 (A) B              23 (A) B                -0.6328
    ------------------------------------------------------
  ----------------------------------------------------------------------------


  Excited state  5 (A)                                             [converged]
  ----------------------------------------------------------------------------
  Term symbol:  6 (-) A                                     R^2 =  4.24383e-13

  Total energy:                                           -248.3168048566 a.u.
  Excitation energy:                                             413.861441 eV

  Osc. strength:                                                      0.000000
  Trans. dip. moment [a.u.]:           [   0.000000,    0.000000,    0.000000]
  <i|r^2|0> [a.u.]:                    [   0.000000,   -0.000000,   -0.000000]

  V1^2 = 0.7676, V2^2 = 0.2324

  Important amplitudes:
     core i     occ j      vir a      vir b          v   
    ------------------------------------------------------
     1 (A) B              28 (A) B                -0.6102
     1 (A) A              28 (A) A                 0.6102
    ------------------------------------------------------
  ----------------------------------------------------------------------------


  Excited state  6 (A)                                             [converged]
  ----------------------------------------------------------------------------
  Term symbol:  7 (-) A                                     R^2 =  5.52363e-13

  Total energy:                                           -248.3044346063 a.u.
  Excitation energy:                                             414.198053 eV

  Osc. strength:                                                      0.033775
  Trans. dip. moment [a.u.]:           [  -0.000000,   -0.000000,   -0.057692]
  <i|r^2|0> [a.u.]:                    [  -0.000000,   -0.000000,    0.000000]

  V1^2 = 0.7579, V2^2 = 0.2421

  Important amplitudes:
     core i     occ j      vir a      vir b          v   
    ------------------------------------------------------
     1 (A) A              28 (A) A                 0.6085
     1 (A) B              28 (A) B                 0.6085
    ------------------------------------------------------
  ----------------------------------------------------------------------------


  Excited state  7 (A)                                             [converged]
  ----------------------------------------------------------------------------
  Term symbol:  8 (-) A                                     R^2 =  3.88849e-13

  Total energy:                                           -248.2701100944 a.u.
  Excitation energy:                                             415.132070 eV

  Osc. strength:                                                      0.000000
  Trans. dip. moment [a.u.]:           [  -0.000000,   -0.000000,   -0.000000]
  <i|r^2|0> [a.u.]:                    [   0.000000,   -0.000000,   -0.000000]

  V1^2 = 0.8284, V2^2 = 0.1716

  Important amplitudes:
     core i     occ j      vir a      vir b          v   
    ------------------------------------------------------
     1 (A) B              29 (A) B                 0.5061
     1 (A) A              29 (A) A                -0.5061
    ------------------------------------------------------
  ----------------------------------------------------------------------------


  Excited state  8 (A)                                             [converged]
  ----------------------------------------------------------------------------
  Term symbol:  9 (-) A                                     R^2 =  1.04058e-12

  Total energy:                                           -248.2633340304 a.u.
  Excitation energy:                                             415.316457 eV

  Osc. strength:                                                      0.004323
  Trans. dip. moment [a.u.]:           [  -0.020612,    0.000000,    0.000000]
  <i|r^2|0> [a.u.]:                    [  -0.000000,    0.000000,    0.000000]

  V1^2 = 0.8134, V2^2 = 0.1866

  Important amplitudes:
     core i     occ j      vir a      vir b          v   
    ------------------------------------------------------
     1 (A) A              24 (A) A                -0.6131
     1 (A) B              24 (A) B                -0.6131
    ------------------------------------------------------
  ----------------------------------------------------------------------------


  Excited state  9 (A)                                             [converged]
  ----------------------------------------------------------------------------
  Term symbol:  10 (-) A                                    R^2 =  9.98750e-13

  Total energy:                                           -248.2559957490 a.u.
  Excitation energy:                                             415.516141 eV

  Osc. strength:                                                      0.000000
  Trans. dip. moment [a.u.]:           [  -0.000000,   -0.000000,    0.000000]
  <i|r^2|0> [a.u.]:                    [   0.000000,   -0.000000,   -0.000000]

  V1^2 = 0.8159, V2^2 = 0.1841

  Important amplitudes:
     core i     occ j      vir a      vir b          v   
    ------------------------------------------------------
     1 (A) B              24 (A) B                 0.5069
     1 (A) A              24 (A) A                -0.5069
    ------------------------------------------------------
  ----------------------------------------------------------------------------


  Excited state 10 (A)                                             [converged]
  ----------------------------------------------------------------------------
  Term symbol:  11 (-) A                                    R^2 =  2.67086e-13

  Total energy:                                           -248.2410324965 a.u.
  Excitation energy:                                             415.923312 eV

  Osc. strength:                                                      0.000000
  Trans. dip. moment [a.u.]:           [   0.000000,   -0.000000,    0.000000]
  <i|r^2|0> [a.u.]:                    [   0.000000,   -0.000000,   -0.000000]

  V1^2 = 0.8052, V2^2 = 0.1948

  Important amplitudes:
     core i     occ j      vir a      vir b          v   
    ------------------------------------------------------
     1 (A) A              25 (A) A                 0.6184
     1 (A) B              25 (A) B                -0.6184
    ------------------------------------------------------
  ----------------------------------------------------------------------------


  Excited state 11 (A)                                             [converged]
  ----------------------------------------------------------------------------
  Term symbol:  12 (-) A                                    R^2 =  1.45270e-12

  Total energy:                                           -248.2408085191 a.u.
  Excitation energy:                                             415.929407 eV

  Osc. strength:                                                      0.000000
  Trans. dip. moment [a.u.]:           [   0.000000,    0.000000,   -0.000000]
  <i|r^2|0> [a.u.]:                    [   0.000000,    0.000000,   -0.000000]

  V1^2 = 0.8043, V2^2 = 0.1957

  Important amplitudes:
     core i     occ j      vir a      vir b          v   
    ------------------------------------------------------
     1 (A) B              25 (A) B                 0.6228
     1 (A) A              25 (A) A                 0.6228
    ------------------------------------------------------
  ----------------------------------------------------------------------------


  Excited state 12 (A)                                             [converged]
  ----------------------------------------------------------------------------
  Term symbol:  13 (-) A                                    R^2 =  6.04099e-13

  Total energy:                                           -248.2379686670 a.u.
  Excitation energy:                                             416.006683 eV

  Osc. strength:                                                      0.012177
  Trans. dip. moment [a.u.]:           [  -0.034566,    0.000000,   -0.000000]
  <i|r^2|0> [a.u.]:                    [  -0.000000,    0.000000,    0.000000]

  V1^2 = 0.8288, V2^2 = 0.1712

  Important amplitudes:
     core i     occ j      vir a      vir b          v   
    ------------------------------------------------------
     1 (A) A              29 (A) A                 0.6140
     1 (A) B              29 (A) B                 0.6140
    ------------------------------------------------------
  ----------------------------------------------------------------------------


  Excited state 13 (A)                                             [converged]
  ----------------------------------------------------------------------------
  Term symbol:  14 (-) A                                    R^2 =  6.81389e-07

  Total energy:                                           -248.2332291063 a.u.
  Excitation energy:                                             416.135653 eV

  Osc. strength:                                                      0.000000
  Trans. dip. moment [a.u.]:           [   0.000000,    0.000000,    0.000000]
  <i|r^2|0> [a.u.]:                    [  -0.000000,    0.000000,    0.000000]

  V1^2 = 0.0004, V2^2 = 0.9996

  Important amplitudes:
     core i     occ j      vir a      vir b          v   
    ------------------------------------------------------
     1 (A) A   21 (A) B   22 (A) A   22 (A) B      0.4748
     1 (A) B   21 (A) A   22 (A) A   22 (A) B     -0.4748
    ------------------------------------------------------
  ----------------------------------------------------------------------------


  Excited state 14 (A)                                             [converged]
  ----------------------------------------------------------------------------
  Term symbol:  15 (-) A                                    R^2 =  3.16169e-10

  Total energy:                                           -248.2328875391 a.u.
  Excitation energy:                                             416.144948 eV

  Osc. strength:                                                      0.000000
  Trans. dip. moment [a.u.]:           [   0.000000,   -0.000000,   -0.000000]
  <i|r^2|0> [a.u.]:                    [   0.000000,   -0.000000,   -0.000000]

  V1^2 = 0.0004, V2^2 = 0.9996

  Important amplitudes:
     core i     occ j      vir a      vir b          v   
    ------------------------------------------------------
     1 (A) A   21 (A) B   22 (A) A   22 (A) B     -0.4748
     1 (A) B   21 (A) A   22 (A) A   22 (A) B     -0.4748
    ------------------------------------------------------
  ----------------------------------------------------------------------------


  Excited state 15 (A)                                             [converged]
  ----------------------------------------------------------------------------
  Term symbol:  16 (-) A                                    R^2 =  5.15135e-11

  Total energy:                                           -248.2133115209 a.u.
  Excitation energy:                                             416.677638 eV

  Osc. strength:                                                      0.000000
  Trans. dip. moment [a.u.]:           [   0.000000,    0.000000,    0.000000]
  <i|r^2|0> [a.u.]:                    [   0.000000,   -0.000000,   -0.000000]

  V1^2 = 0.8088, V2^2 = 0.1912

  Important amplitudes:
     core i     occ j      vir a      vir b          v   
    ------------------------------------------------------
     1 (A) A              26 (A) A                 0.6202
     1 (A) B              26 (A) B                -0.6202
    ------------------------------------------------------
  ----------------------------------------------------------------------------


  Excited state 16 (A)                                             [converged]
  ----------------------------------------------------------------------------
  Term symbol:  17 (-) A                                    R^2 =  1.38315e-11

  Total energy:                                           -248.2101575307 a.u.
  Excitation energy:                                             416.763463 eV

  Osc. strength:                                                      0.000000
  Trans. dip. moment [a.u.]:           [   0.000000,   -0.000000,    0.000000]
  <i|r^2|0> [a.u.]:                    [   0.089805,   -0.001435,   -0.004119]

  V1^2 = 0.8077, V2^2 = 0.1923

  Important amplitudes:
     core i     occ j      vir a      vir b          v   
    ------------------------------------------------------
     1 (A) B              26 (A) B                 0.6264
     1 (A) A              26 (A) A                 0.6264
    ------------------------------------------------------
  ----------------------------------------------------------------------------


  Excited state 17 (A)                                             [converged]
  ----------------------------------------------------------------------------
  Term symbol:  18 (-) A                                    R^2 =  3.84368e-10

  Total energy:                                           -248.2061844327 a.u.
  Excitation energy:                                             416.871576 eV

  Osc. strength:                                                      0.000000
  Trans. dip. moment [a.u.]:           [  -0.000000,   -0.000000,   -0.000000]
  <i|r^2|0> [a.u.]:                    [  -0.000000,    0.000000,    0.000000]

  V1^2 = 0.8072, V2^2 = 0.1928

  Important amplitudes:
     core i     occ j      vir a      vir b          v   
    ------------------------------------------------------
     1 (A) B              27 (A) B                -0.6079
     1 (A) A              27 (A) A                 0.6079
    ------------------------------------------------------
  ----------------------------------------------------------------------------


  Excited state 18 (A)                                             [converged]
  ----------------------------------------------------------------------------
  Term symbol:  19 (-) A                                    R^2 =  5.90826e-10

  Total energy:                                           -248.2042764942 a.u.
  Excitation energy:                                             416.923494 eV

  Osc. strength:                                                      0.006308
  Trans. dip. moment [a.u.]:           [  -0.000000,   -0.024852,   -0.000000]
  <i|r^2|0> [a.u.]:                    [  -0.000000,   -0.000000,   -0.000000]

  V1^2 = 0.8056, V2^2 = 0.1944

  Important amplitudes:
     core i     occ j      vir a      vir b          v   
    ------------------------------------------------------
     1 (A) A              27 (A) A                -0.6106
     1 (A) B              27 (A) B                -0.6106
    ------------------------------------------------------
  ----------------------------------------------------------------------------


  Excited state 19 (A)                                             [converged]
  ----------------------------------------------------------------------------
  Term symbol:  20 (-) A                                    R^2 =  3.63444e-07

  Total energy:                                           -248.1726525455 a.u.
  Excitation energy:                                             417.784025 eV

  Osc. strength:                                                      0.000000
  Trans. dip. moment [a.u.]:           [  -0.000000,    0.000000,   -0.000000]
  <i|r^2|0> [a.u.]:                    [   0.000000,   -0.000000,   -0.000000]

  V1^2 = 0.0000, V2^2 = 1.0000

  Important amplitudes:
     core i     occ j      vir a      vir b          v   
    ------------------------------------------------------
     1 (A) A   21 (A) A   22 (A) A   23 (A) A      0.2740
     1 (A) B   21 (A) A   22 (A) A   23 (A) B     -0.2740
    ------------------------------------------------------
  ----------------------------------------------------------------------------


  Excited state 20 (A)                                             [converged]
  ----------------------------------------------------------------------------
  Term symbol:  21 (-) A                                    R^2 =  3.88411e-07

  Total energy:                                           -248.1584281457 a.u.
  Excitation energy:                                             418.171091 eV

  Osc. strength:                                                      0.000000
  Trans. dip. moment [a.u.]:           [   0.000000,   -0.000000,    0.000000]
  <i|r^2|0> [a.u.]:                    [   0.000000,   -0.000000,   -0.000000]

  V1^2 = 0.0029, V2^2 = 0.9971

  Important amplitudes:
     core i     occ j      vir a      vir b          v   
    ------------------------------------------------------
     1 (A) A   21 (A) B   23 (A) A   22 (A) B     -0.3467
     1 (A) B   21 (A) A   22 (A) A   23 (A) B     -0.3467
    ------------------------------------------------------
  ----------------------------------------------------------------------------


--------------------------------------------------------------------------------
  Time of ADC calculation:  CPU 6889.87 s  wall 2253.11 s
================================================================================
 
 --------------------------------------------------------------
 
                    Orbital Energies (a.u.)
 --------------------------------------------------------------
 
 Alpha MOs
 -- Occupied --
-15.600 -15.600 -11.287 -11.287 -11.286 -11.286  -1.301  -1.213
 -1.052  -0.902  -0.883  -0.724  -0.698  -0.677  -0.610  -0.568
 -0.547  -0.496  -0.428  -0.411  -0.358
 -- Virtual --
  0.091   0.127   0.256   0.278   0.303   0.316   0.336   0.345
  0.467   0.493   0.499   0.616   0.683   0.708   0.724   0.733
  0.792   0.817   0.823   0.840   0.852   0.881   0.907   0.959
  1.066   1.067   1.073   1.073   1.086   1.106   1.138   1.174
  1.208   1.242   1.270   1.345   1.354   1.480   1.492   1.549
  1.628   1.735   1.748   1.771   1.782   1.783   1.930   2.021
  2.072   2.148   2.162   2.291   2.350   2.416   2.473   2.520
  2.531   2.549   2.594   2.654   2.737   2.823   2.874   2.915
  3.036   3.045   3.072   3.087   3.180   3.426   3.732   4.284
  4.486   4.541   4.602   4.729   4.907
 
 Beta MOs
 -- Occupied --
-15.600 -15.600 -11.287 -11.287 -11.286 -11.286  -1.301  -1.213
 -1.052  -0.902  -0.883  -0.724  -0.698  -0.677  -0.610  -0.568
 -0.547  -0.496  -0.428  -0.411  -0.358
 -- Virtual --
  0.091   0.127   0.256   0.278   0.303   0.316   0.336   0.345
  0.467   0.493   0.499   0.616   0.683   0.708   0.724   0.733
  0.792   0.817   0.823   0.840   0.852   0.881   0.907   0.959
  1.066   1.067   1.073   1.073   1.086   1.106   1.138   1.174
  1.208   1.242   1.270   1.345   1.354   1.480   1.492   1.549
  1.628   1.735   1.748   1.771   1.782   1.783   1.930   2.021
  2.072   2.148   2.162   2.291   2.350   2.416   2.473   2.520
  2.531   2.549   2.594   2.654   2.737   2.823   2.874   2.915
  3.036   3.045   3.072   3.087   3.180   3.426   3.732   4.284
  4.486   4.541   4.602   4.729   4.907
 --------------------------------------------------------------
 
          Ground-State Mulliken Net Atomic Charges

     Atom                 Charge (a.u.)    Spin (a.u.)
  --------------------------------------------------------
      1 C                     0.014416       0.000000
      2 C                     0.014416       0.000000
      3 N                    -0.464762       0.000000
      4 N                    -0.464762       0.000000
      5 C                     0.014416       0.000000
      6 C                     0.014416       0.000000
      7 H                     0.217964       0.000000
      8 H                     0.217964       0.000000
      9 H                     0.217964       0.000000
     10 H                     0.217964       0.000000
  --------------------------------------------------------
  Sum of atomic charges =     0.000000
  Sum of spin   charges =     0.000000

 -----------------------------------------------------------------
                    Cartesian Multipole Moments
 -----------------------------------------------------------------
    Charge (ESU x 10^10)
                 0.0000
    Dipole Moment (Debye)
         X       0.0000      Y       0.0000      Z       0.0000
       Tot       0.0000
    Quadrupole Moments (Debye-Ang)
        XX     -41.5290     XY       0.0000     YY     -26.0158
        XZ       0.0000     YZ       0.0000     ZZ     -36.3330
    Octopole Moments (Debye-Ang^2)
       XXX       0.0000    XXY       0.0000    XYY       0.0000
       YYY       0.0000    XXZ       0.0000    XYZ       0.0000
       YYZ       0.0000    XZZ       0.0000    YZZ       0.0000
       ZZZ       0.0000
    Hexadecapole Moments (Debye-Ang^3)
      XXXX    -298.5975   XXXY       0.0000   XXYY     -68.8944
      XYYY       0.0000   YYYY    -224.0947   XXXZ       0.0000
      XXYZ       0.0000   XYYZ       0.0000   YYYZ       0.0000
      XXZZ     -50.6968   XYZZ       0.0000   YYZZ     -53.2568
      XZZZ       0.0000   YZZZ       0.0000   ZZZZ     -36.1048
 -----------------------------------------------------------------
Archival summary:
1\1\tp-linux1\SP\HF\6-31G*\244\thomas\ThuJan2615:46:452017ThuJan2615:46:452017\0\\#,HF,6-31G*,\\0,1\N\C,1,1.34606\H,2,1.0834,1,116.808\C,1,1.34606,2,115.185,3,-180,0\H,4,1.0834,1,116.808,2,-180,0\C,2,1.39225,1,122.408,3,-180,0\H,6,1.0834,2,120.785,1,-180,0\N,6,1.34606,2,122.408,1,0,0\C,8,1.34606,6,115.185,2,0,0\H,9,1.0834,8,116.808,6,-180,0\\HF=-262.6793\\@

 Total job time:  2257.56s(wall), 6909.92s(cpu) 
 Thu Jan 26 15:46:45 2017

        *************************************************************
        *                                                           *
        *  Thank you very much for using Q-Chem.  Have a nice day.  *
        *                                                           *
        *************************************************************


0 sent ACK to 0 
now end server 0 ... 
cleanup process ... done
remove work dirs /scratch/qchem/qchem10917.0 -- /scratch/qchem/qchem10917.0
rm -rf /scratch/qchem/qchem10917.0
rm -rf /scratch/qchem/qchem10917
