You are running Q-Chem version: 4.3

#
# job setting
#
local host:  tp-linux1
current dir: /home/thomas/CODE_displace_coords/qchem
input file:  cvs-adc2.inp
output file: 
nprocs     : 1
nthreads   : 8
#
# qchem installation setting
#
QC:          /mnt/software/qchem
QCAUX:       /mnt/software/qchem/qcaux
QCPROG:      /mnt/software/qchem/exe/qcprog.exe
QCPROG_S:    /mnt/software/qchem/exe/qcprog.exe_s
PARALLEL:    -DPARALLEL
QCMPI:       mpich
#
# qchem directory setting
#
qcrun:       qchem23522
QCSCRATCH:   /scratch/qchem
QCLOCALSCR:  
QCTMPDIR:    /scratch/qchem
QCFILEPREF:  /scratch/qchem/qchem23522
QCSAVEDIR:   
workdirs:    /scratch/qchem/qchem23522
workdir0:    /scratch/qchem/qchem23522
partmpdirs =  
#
# parallel setting
#
QCRSH:           ssh
QCMPI:           mpich
QCMPIRUN:        /mnt/software/qchem/bin/mpi/mpirun_qchem
QCMACHINEFILE:   /mnt/software/qchem/bin/mpi/machines
127.0.1.1 32

#
# env setting
#
exported envs:   QC QCAUX QCSCRATCH QCRUNNAME QCFILEPREF QCPROG QCPROG_S GUIFILE

Running Job 1 of 3 cvs-adc2.inp
qchem cvs-adc2.inp_23522.0 /scratch/qchem/qchem23522/ 1
/mnt/software/qchem/bin/mpi/mpirun_qchem -machinefile /mnt/software/qchem/bin/mpi/machines -np 1 /mnt/software/qchem/exe/qcprog.exe cvs-adc2.inp_23522.0 /scratch/qchem/qchem23522/

Process 0 of 1 is on tp-linux1 - thread support 0
initial socket setup ...start
initial socket setup ...done 
now start server 0 ... 

cmd = ssh tp-linux1 /mnt/software/qchem/bin/get_hostid 265130945 > /scratch/qchem/qchem23522/lic.dat
                  Welcome to Q-Chem
     A Quantum Leap Into The Future Of Chemistry


 Q-Chem 4.3, Q-Chem, Inc., Pleasanton, CA (2015)

 Y. Shao,  Z. Gan,  E. Epifanovsky,  A. T. B. Gilbert,  M. Wormit,  
 J. Kussmann,  A. W. Lange,  A. Behn,  J. Deng,  X. Feng,  D. Ghosh,  
 M. Goldey,  P. R. Horn,  L. D. Jacobson,  I. Kaliman,  R. Z. Khaliullin,  
 T. Kus,  A. Landau,  J. Liu,  E. I. Proynov,  Y. M. Rhee,  R. M. Richard,  
 M. A. Rohrdanz,  R. P. Steele,  E. J. Sundstrom,  H. L. Woodcock III,  
 P. M. Zimmerman,  D. Zuev,  B. Albrecht,  E. Alguire,  B. Austin,  
 S. A. Baeppler,  G. J. O. Beran,  Y. A. Bernard,  E. Berquist,  
 K. Brandhorst,  K. B. Bravaya,  S. T. Brown,  D. Casanova,  C.-M. Chang,  
 Y. Chen,  S. H. Chien,  K. D. Closser,  D. L. Crittenden,  M. Diedenhofen,  
 R. A. DiStasio Jr.,  H. Do,  A. D. Dutoi,  R. G. Edgar,  P.-T. Fang,  
 S. Fatehi,  Q. Feng,  L. Fusti-Molnar,  A. Ghysels,  
 A. Golubeva-Zadorozhnaya,  J. Gomes,  A. Gunina,  M. W. D. Hanson-Heine,  
 P. H. P. Harbach,  A. W. Hauser,  E. G. Hohenstein,  Z. C. Holden,  K. Hui,  
 T.-C. Jagau,  H. Ji,  B. Kaduk,  K. Khistyaev,  Jaehoon Kim,  Jihan Kim,  
 R. A. King,  P. Klunzinger,  D. Kosenkov,  T. Kowalczyk,  C. M. Krauter,  
 K. U. Lao,  A. Laurent,  K. V. Lawler,  S. Lehtola,  S. V. Levchenko,  
 C. Y. Lin,  Y.-S. Lin,  F. Liu,  E. Livshits,  R. C. Lochan,  A. Luenser,  
 P. Manohar,  S. F. Manzer,  S.-P. Mao,  N. Mardirossian,  A. V. Marenich,  
 L. A. Martinez-Martinez,  S. A. Maurer,  N. J. Mayhall,  K. Nanda,  
 C. M. Oana,  R. Olivares-Amaya,  D. P. O'Neill,  J. A. Parkhill,  
 T. M. Perrine,  R. Peverati,  P. A. Pieniazek,  F. Plasser,  A. Prociuk,  
 D. R. Rehn,  E. Rosta,  N. J. Russ,  N. Sergueev,  S. M. Sharada,  
 S. Sharma,  D. W. Small,  A. Sodt,  T. Stauch,  T. Stein,  D. Stuck,  
 Y.-C. Su,  A. J. W. Thom,  T. Tsuchimochi,  L. Vogt,  O. Vydrov,  T. Wang,  
 M. A. Watson,  J. Wenzel,  A. White,  C. F. Williams,  V. Vanovschi,  
 S. Yeganeh,  S. R. Yost,  Z.-Q. You,  I. Y. Zhang,  X. Zhang,  Y. Zhao,  
 B. R. Brooks,  G. K. L. Chan,  D. M. Chipman,  C. J. Cramer,  
 W. A. Goddard III,  M. S. Gordon,  W. J. Hehre,  A. Klamt,  
 H. F. Schaefer III,  M. W. Schmidt,  C. D. Sherrill,  D. G. Truhlar,  
 A. Warshel,  X. Xu,  A. Aspuru-Guzik,  R. Baer,  A. T. Bell,  N. A. Besley,  
 J.-D. Chai,  A. Dreuw,  B. D. Dunietz,  T. R. Furlani,  S. R. Gwaltney,  
 C.-P. Hsu,  Y. Jung,  J. Kong,  D. S. Lambrecht,  W. Liang,  C. Ochsenfeld,  
 V. A. Rassolov,  L. V. Slipchenko,  J. E. Subotnik,  T. Van Voorhis,  
 J. M. Herbert,  A. I. Krylov,  P. M. W. Gill,  M. Head-Gordon

 Contributors to earlier versions of Q-Chem not listed above: 
 R. D. Adamson,  J. Baker,  E. F. C. Byrd,  A. K. Chakraborty,  C.-L. Cheng,  
 H. Dachsel,  R. J. Doerksen,  G. Hawkins,  A. Heyden,  S. Hirata,  
 G. Kedziora,  F. J. Keil,  C. Kelley,  P. P. Korambath,  W. Kurlancheek,  
 A. M. Lee,  M. S. Lee,  D. Liotard,  I. Lotan,  P. E. Maslen,  N. Nair,  
 D. Neuhauser,  R. Olson,  B. Peters,  J. Ritchie,  N. E. Schultz,  
 N. Shenvi,  A. C. Simmonett,  K. S. Thanthiriwatte,  Q. Wu,  W. Zhang

 Please cite Q-Chem as follows:
 Y. Shao et al., Mol. Phys. 113, 184-215 (2015)
 DOI: 10.1080/00268976.2014.952696

 Q-Chem 4.3.0 for Intel X86 Linux

 Parts of Q-Chem use Armadillo 5.200.1 (Boston Tea Smuggler).
 http://arma.sourceforge.net/

 Q-Chem begins on Thu Jan 26 11:53:25 2017  

Host: 
0

     Scratch files written to /scratch/qchem/qchem23522//
 Nov1815 1189b_ 19540  19532 5443   
 Parallel job on  1  processors
Processing $rem in /mnt/software/qchem/config/preferences.
 MEM_TOTAL  2000 

Checking the input file for inconsistencies... 	...done.

--------------------------------------------------------------
User input:
--------------------------------------------------------------
$comment
XAS calculation for the 2b valence excited for water using cvs-adc(2)-x + 6-311+G* basis set
job 1 - determination of HF orbitals
$end

$molecule
0 1
C    -0.696126    -1.136419     0.000000
C     0.696126    -1.136419     0.000000
N    -1.417532     0.000000     0.000000
N     1.417532     0.000000     0.000000
C     0.696126     1.136419     0.000000
C    -0.696126     1.136419     0.000000
H     1.250625     2.067160     0.000000
H    -1.250625     2.067160     0.000000
H     1.250625    -2.067160     0.000000
H    -1.250625    -2.067160     0.000000
$end

$rem
jobtype      sp
sym_ignore true
exchange     hf
basis        6-31G*
unrestricted true
$end

--------------------------------------------------------------
 ----------------------------------------------------------------
             Standard Nuclear Orientation (Angstroms)
    I     Atom           X                Y                Z
 ----------------------------------------------------------------
    1      C      -0.6961260000    -1.1364190000     0.0000000000
    2      C       0.6961260000    -1.1364190000     0.0000000000
    3      N      -1.4175320000     0.0000000000     0.0000000000
    4      N       1.4175320000     0.0000000000     0.0000000000
    5      C       0.6961260000     1.1364190000     0.0000000000
    6      C      -0.6961260000     1.1364190000     0.0000000000
    7      H       1.2506250000     2.0671600000     0.0000000000
    8      H      -1.2506250000     2.0671600000     0.0000000000
    9      H       1.2506250000    -2.0671600000     0.0000000000
   10      H      -1.2506250000    -2.0671600000     0.0000000000
 ----------------------------------------------------------------
 Nuclear Repulsion Energy =   207.9974042823 hartrees
 There are       21 alpha and       21 beta electrons
 Requested basis set is 6-31G(d)
 There are 32 shells and 98 basis functions

 Total QAlloc Memory Limit   2000 MB
 Mega-Array Size        61 MB
 MEM_STATIC part        62 MB

                       Distance Matrix (Angstroms)
             C (  1)   C (  2)   N (  3)   N (  4)   C (  5)   C (  6)
   C (  2)  1.392252
   N (  3)  1.346059  2.399791
   N (  4)  2.399791  1.346059  2.835064
   C (  5)  2.665363  2.272838  2.399791  1.346059
   C (  6)  2.272838  2.665363  1.346059  2.399791  1.392252
   H (  7)  3.748701  3.251213  3.375235  2.073887  1.083396  2.157804
   H (  8)  3.251213  3.748701  2.073887  3.375235  2.157804  1.083396
   H (  9)  2.157804  1.083396  3.375235  2.073887  3.251213  3.748701
   H ( 10)  1.083396  2.157804  2.073887  3.375235  3.748701  3.251213
             H (  7)   H (  8)   H (  9)
   H (  8)  2.501250
   H (  9)  4.134320  4.832065
   H ( 10)  4.832065  4.134320  2.501250
 
 tim1(1): 
  0.000000000000000E+000
 tim1(2): 
  0.000000000000000E+000
 A cutoff of  1.0D-08 yielded    495 shell pairs
 There are      4944 function pairs
 
 -------------------------------------------------------
 OpenMP Integral Computing Module                       
 Release: version 1.0, May 2013, Q-Chem Inc. Pittsburgh 
 -------------------------------------------------------
 Integral Job Info:
 Integral job number is                      11
 Integral operator is                         1
 short-range coefficients                     0
 long-range coefficients              100000000
 Omega coefficients                           0
 if combine SR and LR in K                    0
 Integral screening is                        0
 Integral computing path is                   2
 max size of driver memory is            800000
 size of driver memory is                593474
 size of scratch memory is              2260544
 max col of scratch BK array               1296
 max len of scratch array in speh3          155
 max len of scratch index in speh4           18
 max int batch size is                      520
 min int batch size is                       52
 fixed nKL is                                52
 max L of basis functions is                  2
 order of int derivative is                   0
 number of shells is                         32
 number of basis is                          98
 number of cartesian basis is                98
 number of contracted shell pairs           495
 number of primitive shell pairs           2101
 maxK2 (contraction) of shell pair           36
 max number of K2 of shell pair               1
 max number of CS2 of shell pair             52
 max number of PS2 of shell pair            312
 mem total for path MDJ                   27448
 -------------------------------------------------------
 Smallest overlap matrix eigenvalue = 1.40E-03

 Scale SEOQF with 1.000000e-01/1.000000e-01/1.000000e+00

 Standard Electronic Orientation quadrupole field applied
 Nucleus-field energy     =     0.0000000051 hartrees
 Guess from superposition of atomic densities
 Warning:  Energy on first SCF cycle will be non-variational
 An unrestricted Hartree-Fock SCF calculation will be
 performed using Pulay DIIS extrapolation
 SCF converges when DIIS error is below 1.0E-05
 using 8 threads for integral computing 
 ---------------------------------------
  Cycle       Energy         DIIS Error
 ---------------------------------------
    1    -264.8351357250      8.71E-02
    2    -262.6061638531      6.65E-03
    3    -262.6694980805      2.72E-03
    4    -262.6774662255      1.10E-03
    5    -262.6791954361      2.02E-04
    6    -262.6792802909      7.07E-05
    7    -262.6792978056      2.50E-05
    8    -262.6792999555      3.90E-06 Convergence criterion met
 ---------------------------------------
 <S^2> = 0.0000
 SCF time:  CPU 11.90 s  wall 2.07 s
 SCF   energy in the final basis set = -262.6792999555
 Total energy in the final basis set = -262.6792999555
 
 --------------------------------------------------------------
 
                    Orbital Energies (a.u.)
 --------------------------------------------------------------
 
 Alpha MOs
 -- Occupied --
-15.600 -15.600 -11.287 -11.287 -11.286 -11.286  -1.301  -1.213
 -1.052  -0.902  -0.883  -0.724  -0.698  -0.677  -0.610  -0.568
 -0.547  -0.496  -0.428  -0.411  -0.358
 -- Virtual --
  0.091   0.127   0.256   0.278   0.303   0.316   0.336   0.345
  0.467   0.493   0.499   0.616   0.683   0.708   0.724   0.733
  0.792   0.817   0.823   0.840   0.852   0.881   0.907   0.959
  1.066   1.067   1.073   1.073   1.086   1.106   1.138   1.174
  1.208   1.242   1.270   1.345   1.354   1.480   1.492   1.549
  1.628   1.735   1.748   1.771   1.782   1.783   1.930   2.021
  2.072   2.148   2.162   2.291   2.350   2.416   2.473   2.520
  2.531   2.549   2.594   2.654   2.737   2.823   2.874   2.915
  3.036   3.045   3.072   3.087   3.180   3.426   3.732   4.284
  4.486   4.541   4.602   4.729   4.907
 
 Beta MOs
 -- Occupied --
-15.600 -15.600 -11.287 -11.287 -11.286 -11.286  -1.301  -1.213
 -1.052  -0.902  -0.883  -0.724  -0.698  -0.677  -0.610  -0.568
 -0.547  -0.496  -0.428  -0.411  -0.358
 -- Virtual --
  0.091   0.127   0.256   0.278   0.303   0.316   0.336   0.345
  0.467   0.493   0.499   0.616   0.683   0.708   0.724   0.733
  0.792   0.817   0.823   0.840   0.852   0.881   0.907   0.959
  1.066   1.067   1.073   1.073   1.086   1.106   1.138   1.174
  1.208   1.242   1.270   1.345   1.354   1.480   1.492   1.549
  1.628   1.735   1.748   1.771   1.782   1.783   1.930   2.021
  2.072   2.148   2.162   2.291   2.350   2.416   2.473   2.520
  2.531   2.549   2.594   2.654   2.737   2.823   2.874   2.915
  3.036   3.045   3.072   3.087   3.180   3.426   3.732   4.284
  4.486   4.541   4.602   4.729   4.907
 --------------------------------------------------------------
 
          Ground-State Mulliken Net Atomic Charges

     Atom                 Charge (a.u.)    Spin (a.u.)
  --------------------------------------------------------
      1 C                     0.014393       0.000000
      2 C                     0.014393       0.000000
      3 N                    -0.464739       0.000000
      4 N                    -0.464739       0.000000
      5 C                     0.014393       0.000000
      6 C                     0.014393       0.000000
      7 H                     0.217976       0.000000
      8 H                     0.217976       0.000000
      9 H                     0.217976       0.000000
     10 H                     0.217976       0.000000
  --------------------------------------------------------
  Sum of atomic charges =     0.000000
  Sum of spin   charges =     0.000000

 -----------------------------------------------------------------
                    Cartesian Multipole Moments
 -----------------------------------------------------------------
    Charge (ESU x 10^10)
                 0.0000
    Dipole Moment (Debye)
         X       0.0000      Y       0.0000      Z       0.0000
       Tot       0.0000
    Quadrupole Moments (Debye-Ang)
        XX     -41.5289     XY       0.0000     YY     -26.0155
        XZ       0.0000     YZ       0.0000     ZZ     -36.3330
    Octopole Moments (Debye-Ang^2)
       XXX       0.0000    XXY       0.0000    XYY       0.0000
       YYY       0.0000    XXZ       0.0000    XYZ       0.0000
       YYZ       0.0000    XZZ       0.0000    YZZ       0.0000
       ZZZ       0.0000
    Hexadecapole Moments (Debye-Ang^3)
      XXXX    -298.5971   XXXY       0.0000   XXYY     -68.8930
      XYYY       0.0000   YYYY    -224.0918   XXXZ       0.0000
      XXYZ       0.0000   XYYZ       0.0000   YYYZ       0.0000
      XXZZ     -50.6969   XYZZ       0.0000   YYZZ     -53.2567
      XZZZ       0.0000   YZZZ       0.0000   ZZZZ     -36.1049
 -----------------------------------------------------------------
Archival summary:
1\1\tp-linux1\SP\HF\6-31G*\244\thomas\ThuJan2611:53:282017ThuJan2611:53:282017\0\\#,HF,6-31G*,\\0,1\N\C,1,1.34606\H,2,1.0834,1,116.808\C,1,1.34606,2,115.185,3,-180,0\H,4,1.0834,1,116.808,2,-180,0\C,2,1.39225,1,122.408,3,-180,0\H,6,1.0834,2,120.785,1,-180,0\N,6,1.34606,2,122.408,1,0,0\C,8,1.34606,6,115.185,2,0,0\H,9,1.0834,8,116.808,6,-180,0\\HF=-262.6793\\@

 Total job time:  2.40s(wall), 13.73s(cpu) 
 Thu Jan 26 11:53:28 2017

        *************************************************************
        *                                                           *
        *  Thank you very much for using Q-Chem.  Have a nice day.  *
        *                                                           *
        *************************************************************


0 sent ACK to 0 
now end server 0 ... 
cleanup process ... done

Running Job 2 of 3 cvs-adc2.inp
qchem cvs-adc2.inp_23522.1 /scratch/qchem/qchem23522/ 1
/mnt/software/qchem/bin/mpi/mpirun_qchem -machinefile /mnt/software/qchem/bin/mpi/machines -np 1 /mnt/software/qchem/exe/qcprog.exe cvs-adc2.inp_23522.1 /scratch/qchem/qchem23522/

Process 0 of 1 is on tp-linux1 - thread support 0
initial socket setup ...start
initial socket setup ...done 
now start server 0 ... 

cmd = ssh tp-linux1 /mnt/software/qchem/bin/get_hostid 1968552360 > /scratch/qchem/qchem23522/lic.dat
                  Welcome to Q-Chem
     A Quantum Leap Into The Future Of Chemistry


 Q-Chem 4.3, Q-Chem, Inc., Pleasanton, CA (2015)

 Y. Shao,  Z. Gan,  E. Epifanovsky,  A. T. B. Gilbert,  M. Wormit,  
 J. Kussmann,  A. W. Lange,  A. Behn,  J. Deng,  X. Feng,  D. Ghosh,  
 M. Goldey,  P. R. Horn,  L. D. Jacobson,  I. Kaliman,  R. Z. Khaliullin,  
 T. Kus,  A. Landau,  J. Liu,  E. I. Proynov,  Y. M. Rhee,  R. M. Richard,  
 M. A. Rohrdanz,  R. P. Steele,  E. J. Sundstrom,  H. L. Woodcock III,  
 P. M. Zimmerman,  D. Zuev,  B. Albrecht,  E. Alguire,  B. Austin,  
 S. A. Baeppler,  G. J. O. Beran,  Y. A. Bernard,  E. Berquist,  
 K. Brandhorst,  K. B. Bravaya,  S. T. Brown,  D. Casanova,  C.-M. Chang,  
 Y. Chen,  S. H. Chien,  K. D. Closser,  D. L. Crittenden,  M. Diedenhofen,  
 R. A. DiStasio Jr.,  H. Do,  A. D. Dutoi,  R. G. Edgar,  P.-T. Fang,  
 S. Fatehi,  Q. Feng,  L. Fusti-Molnar,  A. Ghysels,  
 A. Golubeva-Zadorozhnaya,  J. Gomes,  A. Gunina,  M. W. D. Hanson-Heine,  
 P. H. P. Harbach,  A. W. Hauser,  E. G. Hohenstein,  Z. C. Holden,  K. Hui,  
 T.-C. Jagau,  H. Ji,  B. Kaduk,  K. Khistyaev,  Jaehoon Kim,  Jihan Kim,  
 R. A. King,  P. Klunzinger,  D. Kosenkov,  T. Kowalczyk,  C. M. Krauter,  
 K. U. Lao,  A. Laurent,  K. V. Lawler,  S. Lehtola,  S. V. Levchenko,  
 C. Y. Lin,  Y.-S. Lin,  F. Liu,  E. Livshits,  R. C. Lochan,  A. Luenser,  
 P. Manohar,  S. F. Manzer,  S.-P. Mao,  N. Mardirossian,  A. V. Marenich,  
 L. A. Martinez-Martinez,  S. A. Maurer,  N. J. Mayhall,  K. Nanda,  
 C. M. Oana,  R. Olivares-Amaya,  D. P. O'Neill,  J. A. Parkhill,  
 T. M. Perrine,  R. Peverati,  P. A. Pieniazek,  F. Plasser,  A. Prociuk,  
 D. R. Rehn,  E. Rosta,  N. J. Russ,  N. Sergueev,  S. M. Sharada,  
 S. Sharma,  D. W. Small,  A. Sodt,  T. Stauch,  T. Stein,  D. Stuck,  
 Y.-C. Su,  A. J. W. Thom,  T. Tsuchimochi,  L. Vogt,  O. Vydrov,  T. Wang,  
 M. A. Watson,  J. Wenzel,  A. White,  C. F. Williams,  V. Vanovschi,  
 S. Yeganeh,  S. R. Yost,  Z.-Q. You,  I. Y. Zhang,  X. Zhang,  Y. Zhao,  
 B. R. Brooks,  G. K. L. Chan,  D. M. Chipman,  C. J. Cramer,  
 W. A. Goddard III,  M. S. Gordon,  W. J. Hehre,  A. Klamt,  
 H. F. Schaefer III,  M. W. Schmidt,  C. D. Sherrill,  D. G. Truhlar,  
 A. Warshel,  X. Xu,  A. Aspuru-Guzik,  R. Baer,  A. T. Bell,  N. A. Besley,  
 J.-D. Chai,  A. Dreuw,  B. D. Dunietz,  T. R. Furlani,  S. R. Gwaltney,  
 C.-P. Hsu,  Y. Jung,  J. Kong,  D. S. Lambrecht,  W. Liang,  C. Ochsenfeld,  
 V. A. Rassolov,  L. V. Slipchenko,  J. E. Subotnik,  T. Van Voorhis,  
 J. M. Herbert,  A. I. Krylov,  P. M. W. Gill,  M. Head-Gordon

 Contributors to earlier versions of Q-Chem not listed above: 
 R. D. Adamson,  J. Baker,  E. F. C. Byrd,  A. K. Chakraborty,  C.-L. Cheng,  
 H. Dachsel,  R. J. Doerksen,  G. Hawkins,  A. Heyden,  S. Hirata,  
 G. Kedziora,  F. J. Keil,  C. Kelley,  P. P. Korambath,  W. Kurlancheek,  
 A. M. Lee,  M. S. Lee,  D. Liotard,  I. Lotan,  P. E. Maslen,  N. Nair,  
 D. Neuhauser,  R. Olson,  B. Peters,  J. Ritchie,  N. E. Schultz,  
 N. Shenvi,  A. C. Simmonett,  K. S. Thanthiriwatte,  Q. Wu,  W. Zhang

 Please cite Q-Chem as follows:
 Y. Shao et al., Mol. Phys. 113, 184-215 (2015)
 DOI: 10.1080/00268976.2014.952696

 Q-Chem 4.3.0 for Intel X86 Linux

 Parts of Q-Chem use Armadillo 5.200.1 (Boston Tea Smuggler).
 http://arma.sourceforge.net/

 Q-Chem begins on Thu Jan 26 11:53:30 2017  

Host: 
0

     Scratch files written to /scratch/qchem/qchem23522//
 Nov1815 1189b_ 19540  19532 5443   
 Parallel job on  1  processors
Processing $rem in /mnt/software/qchem/config/preferences.
 MEM_TOTAL  2000 

Checking the input file for inconsistencies... 	...done.

--------------------------------------------------------------
User input:
--------------------------------------------------------------

$comment
job2 - MOM calculation for 2b excited state wavefuntion
$end

$molecule
read
$end

$rem
JOBTYPE           SP
EXCHANGE          HF
BASIS             6-31G*
SCF_GUESS         READ
MOM_START         1
UNRESTRICTED      TRUE
sym_ignore true
$end

$swap_occupied_virtual
beta   20  22	!beta electron in RHF HOMO-1 moved to RHF LUMO
$end

--------------------------------------------------------------
 ----------------------------------------------------------------
             Standard Nuclear Orientation (Angstroms)
    I     Atom           X                Y                Z
 ----------------------------------------------------------------
    1      C      -0.6961260000    -1.1364190000     0.0000000000
    2      C       0.6961260000    -1.1364190000     0.0000000000
    3      N      -1.4175320000     0.0000000000     0.0000000000
    4      N       1.4175320000     0.0000000000     0.0000000000
    5      C       0.6961260000     1.1364190000     0.0000000000
    6      C      -0.6961260000     1.1364190000     0.0000000000
    7      H       1.2506250000     2.0671600000     0.0000000000
    8      H      -1.2506250000     2.0671600000     0.0000000000
    9      H       1.2506250000    -2.0671600000     0.0000000000
   10      H      -1.2506250000    -2.0671600000     0.0000000000
 ----------------------------------------------------------------
 Nuclear Repulsion Energy =   207.9974042823 hartrees
 There are       21 alpha and       21 beta electrons
 Requested basis set is 6-31G(d)
 There are 32 shells and 98 basis functions

 Total QAlloc Memory Limit   2000 MB
 Mega-Array Size        61 MB
 MEM_STATIC part        62 MB

                       Distance Matrix (Angstroms)
             C (  1)   C (  2)   N (  3)   N (  4)   C (  5)   C (  6)
   C (  2)  1.392252
   N (  3)  1.346059  2.399791
   N (  4)  2.399791  1.346059  2.835064
   C (  5)  2.665363  2.272838  2.399791  1.346059
   C (  6)  2.272838  2.665363  1.346059  2.399791  1.392252
   H (  7)  3.748701  3.251213  3.375235  2.073887  1.083396  2.157804
   H (  8)  3.251213  3.748701  2.073887  3.375235  2.157804  1.083396
   H (  9)  2.157804  1.083396  3.375235  2.073887  3.251213  3.748701
   H ( 10)  1.083396  2.157804  2.073887  3.375235  3.748701  3.251213
             H (  7)   H (  8)   H (  9)
   H (  8)  2.501250
   H (  9)  4.134320  4.832065
   H ( 10)  4.832065  4.134320  2.501250
 
 tim1(1): 
  0.000000000000000E+000
 tim1(2): 
  0.000000000000000E+000
 A cutoff of  1.0D-08 yielded    495 shell pairs
 There are      4944 function pairs
 
 -------------------------------------------------------
 OpenMP Integral Computing Module                       
 Release: version 1.0, May 2013, Q-Chem Inc. Pittsburgh 
 -------------------------------------------------------
 Integral Job Info:
 Integral job number is                      11
 Integral operator is                         1
 short-range coefficients                     0
 long-range coefficients              100000000
 Omega coefficients                           0
 if combine SR and LR in K                    0
 Integral screening is                        0
 Integral computing path is                   2
 max size of driver memory is            800000
 size of driver memory is                593474
 size of scratch memory is              2260544
 max col of scratch BK array               1296
 max len of scratch array in speh3          155
 max len of scratch index in speh4           18
 max int batch size is                      520
 min int batch size is                       52
 fixed nKL is                                52
 max L of basis functions is                  2
 order of int derivative is                   0
 number of shells is                         32
 number of basis is                          98
 number of cartesian basis is                98
 number of contracted shell pairs           495
 number of primitive shell pairs           2101
 maxK2 (contraction) of shell pair           36
 max number of K2 of shell pair               1
 max number of CS2 of shell pair             52
 max number of PS2 of shell pair            312
 mem total for path MDJ                   27448
 -------------------------------------------------------
 Smallest overlap matrix eigenvalue = 1.40E-03

 Scale SEOQF with 1.000000e-01/1.000000e-01/1.000000e+00

 Standard Electronic Orientation quadrupole field applied
 Nucleus-field energy     =     0.0000000051 hartrees
 Guess MOs from SCF MO coefficient file
 Reading MOs from coefficient file
 User-specified occupied guess orbitals will be used
   Alpha:
   1   2   3   4   5   6   7   8   9  10  11  12  13  14  15
  16  17  18  19  20  21
 Reading MOs from coefficient file
   Beta:
   1   2   3   4   5   6   7   8   9  10  11  12  13  14  15
  16  17  18  19  22  21
 An unrestricted Hartree-Fock SCF calculation will be
 performed using Pulay DIIS extrapolation
 SCF converges when DIIS error is below 1.0E-05
 using 8 threads for integral computing 
 MOM overlap:    20.9985204457 / 21
 MOM overlap:    20.9847460464 / 21
 ---------------------------------------
  Cycle       Energy         DIIS Error
 ---------------------------------------
    1    -262.4727100649      2.10E-03
 MOM overlap:    20.9993104899 / 21
 MOM overlap:    20.9972882434 / 21
    2    -262.4972305133      9.29E-04
 MOM overlap:    20.9998708615 / 21
 MOM overlap:    20.9987254418 / 21
    3    -262.5019882665      4.91E-04
 MOM overlap:    20.9998957849 / 21
 MOM overlap:    20.9998064980 / 21
    4    -262.5035793037      1.03E-04
 MOM overlap:    20.9999440217 / 21
 MOM overlap:    20.9999589084 / 21
    5    -262.5038612642      5.36E-05
 MOM overlap:    20.9999848785 / 21
 MOM overlap:    20.9999938080 / 21
    6    -262.5039345076      2.28E-05
 MOM overlap:    20.9999966091 / 21
 MOM overlap:    20.9999985364 / 21
    7    -262.5039485767      1.01E-05
 MOM overlap:    20.9999995487 / 21
 MOM overlap:    20.9999996895 / 21
    8    -262.5039510943      3.38E-06 Convergence criterion met
 ---------------------------------------
 <S^2> = 1.0562
 SCF time:  CPU 9.78 s  wall 2.21 s
 SCF   energy in the final basis set = -262.5039510943
 Total energy in the final basis set = -262.5039510943
 
 --------------------------------------------------------------
 
                    Orbital Energies (a.u.)
 --------------------------------------------------------------
 
 Alpha MOs
 -- Occupied --
-15.594 -15.594 -11.289 -11.289 -11.288 -11.288  -1.293  -1.206
 -1.050  -0.902  -0.886  -0.734  -0.701  -0.679  -0.612  -0.549
 -0.546  -0.539  -0.446  -0.398  -0.348
 -- Virtual --
  0.119   0.133   0.253   0.277   0.301   0.314   0.353   0.353
  0.469   0.491   0.493   0.619   0.683   0.701   0.733   0.744
  0.802   0.820   0.823   0.841   0.848   0.887   0.906   0.950
  1.049   1.058   1.070   1.085   1.091   1.106   1.158   1.173
  1.207   1.244   1.275   1.345   1.349   1.478   1.502   1.558
  1.633   1.736   1.751   1.784   1.785   1.792   1.928   2.020
  2.071   2.139   2.157   2.290   2.352   2.426   2.479   2.528
  2.531   2.555   2.600   2.668   2.745   2.825   2.875   2.917
  3.028   3.055   3.074   3.081   3.163   3.413   3.722   4.281
  4.489   4.542   4.603   4.731   4.904
 
 Beta MOs
 -- Occupied --
-15.596 -15.596 -11.288 -11.288 -11.287 -11.287  -1.295  -1.210
 -1.045  -0.888  -0.875  -0.700  -0.676  -0.669  -0.613  -0.591
 -0.543  -0.521  -0.391  -0.348  -0.230
 -- Virtual --
 -0.083   0.137   0.261   0.275   0.279   0.303   0.314   0.345
  0.473   0.488   0.504   0.629   0.684   0.726   0.735   0.738
  0.795   0.822   0.825   0.843   0.884   0.885   0.919   0.977
  1.023   1.073   1.079   1.079   1.088   1.101   1.106   1.177
  1.206   1.251   1.276   1.350   1.356   1.486   1.486   1.552
  1.629   1.741   1.751   1.763   1.781   1.784   1.938   2.022
  2.081   2.152   2.169   2.295   2.356   2.419   2.482   2.518
  2.537   2.546   2.601   2.645   2.738   2.819   2.878   2.914
  3.036   3.044   3.074   3.092   3.181   3.427   3.734   4.285
  4.490   4.544   4.605   4.731   4.908
 --------------------------------------------------------------
 
          Ground-State Mulliken Net Atomic Charges

     Atom                 Charge (a.u.)    Spin (a.u.)
  --------------------------------------------------------
      1 C                    -0.004231      -0.011343
      2 C                    -0.004231      -0.011343
      3 N                    -0.463113      -0.051938
      4 N                    -0.463113      -0.051938
      5 C                    -0.004231      -0.011343
      6 C                    -0.004231      -0.011343
      7 H                     0.235787       0.037312
      8 H                     0.235787       0.037312
      9 H                     0.235787       0.037312
     10 H                     0.235787       0.037312
  --------------------------------------------------------
  Sum of atomic charges =     0.000000
  Sum of spin   charges =     0.000000

 -----------------------------------------------------------------
                    Cartesian Multipole Moments
 -----------------------------------------------------------------
    Charge (ESU x 10^10)
                 0.0000
    Dipole Moment (Debye)
         X       0.0000      Y       0.0000      Z       0.0000
       Tot       0.0000
    Quadrupole Moments (Debye-Ang)
        XX     -37.8064     XY       0.0000     YY     -25.8352
        XZ       0.0000     YZ       0.0000     ZZ     -37.7918
    Octopole Moments (Debye-Ang^2)
       XXX       0.0000    XXY       0.0000    XYY       0.0000
       YYY       0.0000    XXZ       0.0000    XYZ       0.0000
       YYZ       0.0000    XZZ       0.0000    YZZ       0.0000
       ZZZ       0.0000
    Hexadecapole Moments (Debye-Ang^3)
      XXXX    -275.6134   XXXY       0.0000   XXYY     -65.2047
      XYYY       0.0000   YYYY    -219.5491   XXXZ       0.0000
      XXYZ       0.0000   XYYZ       0.0000   YYYZ       0.0000
      XXZZ     -51.6190   XYZZ       0.0000   YYZZ     -55.4927
      XZZZ       0.0000   YZZZ       0.0000   ZZZZ     -38.3071
 -----------------------------------------------------------------
Archival summary:
1\1\tp-linux1\SP\HF\6-31G*\244\thomas\ThuJan2611:53:332017ThuJan2611:53:332017\0\\#,HF,6-31G*,\\0,1\N\C,1,1.34606\H,2,1.0834,1,116.808\C,1,1.34606,2,115.185,3,-180,0\H,4,1.0834,1,116.808,2,-180,0\C,2,1.39225,1,122.408,3,-180,0\H,6,1.0834,2,120.785,1,-180,0\N,6,1.34606,2,122.408,1,0,0\C,8,1.34606,6,115.185,2,0,0\H,9,1.0834,8,116.808,6,-180,0\\HF=-262.503951\\@

 Total job time:  2.55s(wall), 11.45s(cpu) 
 Thu Jan 26 11:53:33 2017

        *************************************************************
        *                                                           *
        *  Thank you very much for using Q-Chem.  Have a nice day.  *
        *                                                           *
        *************************************************************


0 sent ACK to 0 
now end server 0 ... 
cleanup process ... done

Running Job 3 of 3 cvs-adc2.inp
qchem cvs-adc2.inp_23522.2 /scratch/qchem/qchem23522/ 1
/mnt/software/qchem/bin/mpi/mpirun_qchem -machinefile /mnt/software/qchem/bin/mpi/machines -np 1 /mnt/software/qchem/exe/qcprog.exe cvs-adc2.inp_23522.2 /scratch/qchem/qchem23522/

Process 0 of 1 is on tp-linux1 - thread support 0
initial socket setup ...start
initial socket setup ...done 
now start server 0 ... 

cmd = ssh tp-linux1 /mnt/software/qchem/bin/get_hostid 1527872859 > /scratch/qchem/qchem23522/lic.dat
                  Welcome to Q-Chem
     A Quantum Leap Into The Future Of Chemistry


 Q-Chem 4.3, Q-Chem, Inc., Pleasanton, CA (2015)

 Y. Shao,  Z. Gan,  E. Epifanovsky,  A. T. B. Gilbert,  M. Wormit,  
 J. Kussmann,  A. W. Lange,  A. Behn,  J. Deng,  X. Feng,  D. Ghosh,  
 M. Goldey,  P. R. Horn,  L. D. Jacobson,  I. Kaliman,  R. Z. Khaliullin,  
 T. Kus,  A. Landau,  J. Liu,  E. I. Proynov,  Y. M. Rhee,  R. M. Richard,  
 M. A. Rohrdanz,  R. P. Steele,  E. J. Sundstrom,  H. L. Woodcock III,  
 P. M. Zimmerman,  D. Zuev,  B. Albrecht,  E. Alguire,  B. Austin,  
 S. A. Baeppler,  G. J. O. Beran,  Y. A. Bernard,  E. Berquist,  
 K. Brandhorst,  K. B. Bravaya,  S. T. Brown,  D. Casanova,  C.-M. Chang,  
 Y. Chen,  S. H. Chien,  K. D. Closser,  D. L. Crittenden,  M. Diedenhofen,  
 R. A. DiStasio Jr.,  H. Do,  A. D. Dutoi,  R. G. Edgar,  P.-T. Fang,  
 S. Fatehi,  Q. Feng,  L. Fusti-Molnar,  A. Ghysels,  
 A. Golubeva-Zadorozhnaya,  J. Gomes,  A. Gunina,  M. W. D. Hanson-Heine,  
 P. H. P. Harbach,  A. W. Hauser,  E. G. Hohenstein,  Z. C. Holden,  K. Hui,  
 T.-C. Jagau,  H. Ji,  B. Kaduk,  K. Khistyaev,  Jaehoon Kim,  Jihan Kim,  
 R. A. King,  P. Klunzinger,  D. Kosenkov,  T. Kowalczyk,  C. M. Krauter,  
 K. U. Lao,  A. Laurent,  K. V. Lawler,  S. Lehtola,  S. V. Levchenko,  
 C. Y. Lin,  Y.-S. Lin,  F. Liu,  E. Livshits,  R. C. Lochan,  A. Luenser,  
 P. Manohar,  S. F. Manzer,  S.-P. Mao,  N. Mardirossian,  A. V. Marenich,  
 L. A. Martinez-Martinez,  S. A. Maurer,  N. J. Mayhall,  K. Nanda,  
 C. M. Oana,  R. Olivares-Amaya,  D. P. O'Neill,  J. A. Parkhill,  
 T. M. Perrine,  R. Peverati,  P. A. Pieniazek,  F. Plasser,  A. Prociuk,  
 D. R. Rehn,  E. Rosta,  N. J. Russ,  N. Sergueev,  S. M. Sharada,  
 S. Sharma,  D. W. Small,  A. Sodt,  T. Stauch,  T. Stein,  D. Stuck,  
 Y.-C. Su,  A. J. W. Thom,  T. Tsuchimochi,  L. Vogt,  O. Vydrov,  T. Wang,  
 M. A. Watson,  J. Wenzel,  A. White,  C. F. Williams,  V. Vanovschi,  
 S. Yeganeh,  S. R. Yost,  Z.-Q. You,  I. Y. Zhang,  X. Zhang,  Y. Zhao,  
 B. R. Brooks,  G. K. L. Chan,  D. M. Chipman,  C. J. Cramer,  
 W. A. Goddard III,  M. S. Gordon,  W. J. Hehre,  A. Klamt,  
 H. F. Schaefer III,  M. W. Schmidt,  C. D. Sherrill,  D. G. Truhlar,  
 A. Warshel,  X. Xu,  A. Aspuru-Guzik,  R. Baer,  A. T. Bell,  N. A. Besley,  
 J.-D. Chai,  A. Dreuw,  B. D. Dunietz,  T. R. Furlani,  S. R. Gwaltney,  
 C.-P. Hsu,  Y. Jung,  J. Kong,  D. S. Lambrecht,  W. Liang,  C. Ochsenfeld,  
 V. A. Rassolov,  L. V. Slipchenko,  J. E. Subotnik,  T. Van Voorhis,  
 J. M. Herbert,  A. I. Krylov,  P. M. W. Gill,  M. Head-Gordon

 Contributors to earlier versions of Q-Chem not listed above: 
 R. D. Adamson,  J. Baker,  E. F. C. Byrd,  A. K. Chakraborty,  C.-L. Cheng,  
 H. Dachsel,  R. J. Doerksen,  G. Hawkins,  A. Heyden,  S. Hirata,  
 G. Kedziora,  F. J. Keil,  C. Kelley,  P. P. Korambath,  W. Kurlancheek,  
 A. M. Lee,  M. S. Lee,  D. Liotard,  I. Lotan,  P. E. Maslen,  N. Nair,  
 D. Neuhauser,  R. Olson,  B. Peters,  J. Ritchie,  N. E. Schultz,  
 N. Shenvi,  A. C. Simmonett,  K. S. Thanthiriwatte,  Q. Wu,  W. Zhang

 Please cite Q-Chem as follows:
 Y. Shao et al., Mol. Phys. 113, 184-215 (2015)
 DOI: 10.1080/00268976.2014.952696

 Q-Chem 4.3.0 for Intel X86 Linux

 Parts of Q-Chem use Armadillo 5.200.1 (Boston Tea Smuggler).
 http://arma.sourceforge.net/

 Q-Chem begins on Thu Jan 26 11:53:36 2017  

Host: 
0

     Scratch files written to /scratch/qchem/qchem23522//
 Nov1815 1189b_ 19540  19532 5443   
 Parallel job on  1  processors
Processing $rem in /mnt/software/qchem/config/preferences.
 MEM_TOTAL  2000 

Checking the input file for inconsistencies... 	...done.

--------------------------------------------------------------
User input:
--------------------------------------------------------------

$comment
job3 - cvs-adc(2)-x calculation with mom to prevent collapse to ground state
$end

$molecule
read
$end

$rem
mem_total 3000
mem_static 1500
sym_ignore true
mom_start 1
scf_guess read
method cvs-adc(2)-x
basis 6-31G*
ee_singlets 20
cc_rest_occ 1                  !only excitations from the 1st orbital (N 1s)
unrestricted  true
max_scf_cycles 200
$end
--------------------------------------------------------------
 ----------------------------------------------------------------
             Standard Nuclear Orientation (Angstroms)
    I     Atom           X                Y                Z
 ----------------------------------------------------------------
    1      C      -0.6961260000    -1.1364190000     0.0000000000
    2      C       0.6961260000    -1.1364190000     0.0000000000
    3      N      -1.4175320000     0.0000000000     0.0000000000
    4      N       1.4175320000     0.0000000000     0.0000000000
    5      C       0.6961260000     1.1364190000     0.0000000000
    6      C      -0.6961260000     1.1364190000     0.0000000000
    7      H       1.2506250000     2.0671600000     0.0000000000
    8      H      -1.2506250000     2.0671600000     0.0000000000
    9      H       1.2506250000    -2.0671600000     0.0000000000
   10      H      -1.2506250000    -2.0671600000     0.0000000000
 ----------------------------------------------------------------
 Nuclear Repulsion Energy =   207.9974042823 hartrees
 There are       21 alpha and       21 beta electrons
 Requested basis set is 6-31G(d)
 There are 32 shells and 98 basis functions

 Total QAlloc Memory Limit   3000 MB
 Mega-Array Size      1467 MB
 MEM_STATIC part      1500 MB

                       Distance Matrix (Angstroms)
             C (  1)   C (  2)   N (  3)   N (  4)   C (  5)   C (  6)
   C (  2)  1.392252
   N (  3)  1.346059  2.399791
   N (  4)  2.399791  1.346059  2.835064
   C (  5)  2.665363  2.272838  2.399791  1.346059
   C (  6)  2.272838  2.665363  1.346059  2.399791  1.392252
   H (  7)  3.748701  3.251213  3.375235  2.073887  1.083396  2.157804
   H (  8)  3.251213  3.748701  2.073887  3.375235  2.157804  1.083396
   H (  9)  2.157804  1.083396  3.375235  2.073887  3.251213  3.748701
   H ( 10)  1.083396  2.157804  2.073887  3.375235  3.748701  3.251213
             H (  7)   H (  8)   H (  9)
   H (  8)  2.501250
   H (  9)  4.134320  4.832065
   H ( 10)  4.832065  4.134320  2.501250
 
 tim1(1): 
  4.000000000000004E-003
 tim1(2): 
  0.000000000000000E+000
 A cutoff of  1.0D-11 yielded    513 shell pairs
 There are      4998 function pairs
 
 -------------------------------------------------------
 OpenMP Integral Computing Module                       
 Release: version 1.0, May 2013, Q-Chem Inc. Pittsburgh 
 -------------------------------------------------------
 Integral Job Info:
 Integral job number is                      11
 Integral operator is                         1
 short-range coefficients                     0
 long-range coefficients              100000000
 Omega coefficients                           0
 if combine SR and LR in K                    0
 Integral screening is                        0
 Integral computing path is                   2
 max size of driver memory is            800000
 size of driver memory is                593474
 size of scratch memory is              2260544
 max col of scratch BK array               1296
 max len of scratch array in speh3          155
 max len of scratch index in speh4           18
 max int batch size is                      520
 min int batch size is                       52
 fixed nKL is                                52
 max L of basis functions is                  2
 order of int derivative is                   0
 number of shells is                         32
 number of basis is                          98
 number of cartesian basis is                98
 number of contracted shell pairs           513
 number of primitive shell pairs           2277
 maxK2 (contraction) of shell pair           36
 max number of K2 of shell pair               1
 max number of CS2 of shell pair             58
 max number of PS2 of shell pair            348
 mem total for path MDJ                   28696
 -------------------------------------------------------
 Smallest overlap matrix eigenvalue = 1.40E-03

 Scale SEOQF with 1.000000e-01/1.000000e-01/1.000000e+00

 Standard Electronic Orientation quadrupole field applied
 Nucleus-field energy     =     0.0000000051 hartrees
 Guess MOs from SCF MO coefficient file
 Reading MOs from coefficient file
 Reading MOs from coefficient file
 An unrestricted Hartree-Fock SCF calculation will be
 performed using Pulay DIIS extrapolation
 SCF converges when DIIS error is below 1.0E-08
 using 8 threads for integral computing 
 MOM overlap:    21.0000000031 / 21
 MOM overlap:    20.9999999971 / 21
 ---------------------------------------
  Cycle       Energy         DIIS Error
 ---------------------------------------
    1    -262.5039514588      9.76E-07
 MOM overlap:    20.9999999989 / 21
 MOM overlap:    20.9999999970 / 21
    2    -262.5039514720      5.16E-07
 MOM overlap:    20.9999999975 / 21
 MOM overlap:    20.9999999971 / 21
    3    -262.5039514774      3.55E-07
 MOM overlap:    20.9999999997 / 21
 MOM overlap:    20.9999999998 / 21
    4    -262.5039514805      1.14E-07
 MOM overlap:    20.9999999999 / 21
 MOM overlap:    21.0000000000 / 21
    5    -262.5039514808      4.63E-08
 MOM overlap:    21.0000000000 / 21
 MOM overlap:    21.0000000000 / 21
    6    -262.5039514808      1.25E-08
 MOM overlap:    21.0000000000 / 21
 MOM overlap:    21.0000000000 / 21
    7    -262.5039514808      4.02E-09 Convergence criterion met
 ---------------------------------------
 <S^2> = 1.0563
 SCF time:  CPU 9.14 s  wall 2.16 s
 SCF   energy in the final basis set = -262.5039514808
 Total energy in the final basis set = -262.5039514808
================================================================================
|                                                                              |
|                                 A D C  M A N                                 |
|                                                                              |
 ------------------------------------------------------------------------------ 
|                                                                              |
| Components:                                                                  |
|                                                                              |
| - libvmm - 1.2-release                                                       |
|   Authors:                                                                   |
|   Evgeny Epifanovsky, Ilya Kaliman                                           |
|                                                                              |
| - libtensor - 2.4-trunk                                                      |
|   Authors:                                                                   |
|   Evgeny Epifanovsky, Michael Wormit, Dmitry Zuev, Sam Manzer                |
|                                                                              |
| - libwfa - 1.1-beta                                                          |
|   Authors:                                                                   |
|   Felix Plasser, Stefanie Baeppler, Benjamin Thomitzni, Michael Wormit       |
|                                                                              |
| - libadc - 1.0-beta                                                          |
|   Authors:                                                                   |
|   Michael Wormit, Philipp H. P. Harbach, Caroline Krauter, Dirk Rehn,        |
|   Matthias Schneider, Jan Wenzel                                             |
|                                                                              |
| - adcman - 2.4-beta                                                          |
|   Authors:                                                                   |
|   Michael Wormit, Philipp H. P. Harbach, Caroline Krauter, Dirk Rehn,        |
|   Jan Wenzel, Andreas Dreuw                                                  |
|                                                                              |
| Authors of earlier versions of ADCMAN:                                       |
| Andreas Dreuw, Jan Hendrik Starcke, Dirk Rehn, Michael Wormit                |
|                                                                              |
================================================================================

 
 Alpha MOs, Unrestricted
 -- Occupied --                  
-15.594 -15.594 -11.289 -11.289 -11.288 -11.288  -1.293  -1.206
  1 A     2 A     3 A     4 A     5 A     6 A     7 A     8 A                  
 -1.050  -0.902  -0.886  -0.734  -0.701  -0.679  -0.612  -0.549
  9 A    10 A    11 A    12 A    13 A    14 A    15 A    16 A                  
 -0.546  -0.539  -0.446  -0.398  -0.348
 17 A    18 A    19 A    20 A    21 A                                          
 -- Virtual --                   
  0.119   0.133   0.253   0.277   0.301   0.314   0.353   0.353
 22 A    23 A    24 A    25 A    26 A    27 A    28 A    29 A                  
  0.469   0.491   0.493   0.619   0.683   0.700   0.733   0.744
 30 A    31 A    32 A    33 A    34 A    35 A    36 A    37 A                  
  0.802   0.820   0.823   0.841   0.848   0.887   0.906   0.950
 38 A    39 A    40 A    41 A    42 A    43 A    44 A    45 A                  
  1.049   1.058   1.070   1.085   1.091   1.106   1.158   1.173
 46 A    47 A    48 A    49 A    50 A    51 A    52 A    53 A                  
  1.207   1.244   1.275   1.345   1.349   1.478   1.502   1.558
 54 A    55 A    56 A    57 A    58 A    59 A    60 A    61 A                  
  1.633   1.736   1.751   1.784   1.785   1.792   1.928   2.020
 62 A    63 A    64 A    65 A    66 A    67 A    68 A    69 A                  
  2.071   2.139   2.157   2.290   2.352   2.426   2.479   2.528
 70 A    71 A    72 A    73 A    74 A    75 A    76 A    77 A                  
  2.531   2.555   2.600   2.668   2.745   2.825   2.875   2.917
 78 A    79 A    80 A    81 A    82 A    83 A    84 A    85 A                  
  3.028   3.055   3.074   3.081   3.163   3.414   3.722   4.281
 86 A    87 A    88 A    89 A    90 A    91 A    92 A    93 A                  
  4.489   4.542   4.603   4.731   4.904
 94 A    95 A    96 A    97 A    98 A                                          
 
 Beta MOs, Unrestricted
 -- Occupied --                  
-15.596 -15.596 -11.288 -11.288 -11.287 -11.287  -1.295  -1.210
  1 A     2 A     3 A     4 A     5 A     6 A     7 A     8 A                  
 -1.045  -0.888  -0.875  -0.700  -0.676  -0.669  -0.613  -0.591
  9 A    10 A    11 A    12 A    13 A    14 A    15 A    16 A                  
 -0.543  -0.521  -0.391  -0.348  -0.230
 17 A    18 A    19 A    20 A    21 A                                          
 -- Virtual --                   
 -0.083   0.137   0.261   0.275   0.279   0.303   0.314   0.345
 22 A    23 A    24 A    25 A    26 A    27 A    28 A    29 A                  
  0.473   0.488   0.504   0.629   0.684   0.726   0.735   0.738
 30 A    31 A    32 A    33 A    34 A    35 A    36 A    37 A                  
  0.795   0.822   0.825   0.843   0.884   0.885   0.919   0.977
 38 A    39 A    40 A    41 A    42 A    43 A    44 A    45 A                  
  1.023   1.073   1.079   1.079   1.088   1.101   1.106   1.177
 46 A    47 A    48 A    49 A    50 A    51 A    52 A    53 A                  
  1.206   1.251   1.276   1.350   1.356   1.486   1.486   1.552
 54 A    55 A    56 A    57 A    58 A    59 A    60 A    61 A                  
  1.629   1.741   1.751   1.763   1.781   1.784   1.938   2.022
 62 A    63 A    64 A    65 A    66 A    67 A    68 A    69 A                  
  2.081   2.152   2.169   2.295   2.356   2.419   2.482   2.518
 70 A    71 A    72 A    73 A    74 A    75 A    76 A    77 A                  
  2.537   2.546   2.601   2.645   2.738   2.819   2.878   2.914
 78 A    79 A    80 A    81 A    82 A    83 A    84 A    85 A                  
  3.036   3.044   3.074   3.092   3.181   3.427   3.734   4.285
 86 A    87 A    88 A    89 A    90 A    91 A    92 A    93 A                  
  4.490   4.544   4.605   4.731   4.908
 94 A    95 A    96 A    97 A    98 A                                          
 

--------------------------------------------------------------------------------
                                   HF Summary                                   
--------------------------------------------------------------------------------
  Energy:                                                 -262.5039514808 a.u.
  Dip. moment [a.u.]:                  [  -0.000000,   -0.000000,   -0.000000]
  Total dipole [Debye]:                                               0.000000
  <r^2> [a.u.]:                        [ 192.441221,  190.930729,   28.097307]
  Total <r^2> [a.u.]:                                               411.469258
--------------------------------------------------------------------------------

--------------------------------------------------------------------------------
                                 MP(2) Summary                                  
--------------------------------------------------------------------------------
  Energy contribution:                                      -0.8783801525 a.u.
  Total energy:                                           -263.3823316333 a.u.
  Dip. moment [a.u.]:                  [   0.000000,   -0.000000,   -0.000000]
  Total dipole [Debye]:                                               0.000000
  <r^2> [a.u.]:                        [ 191.583602,  190.980009,   27.603424]
  Total <r^2> [a.u.]:                                               410.167035
--------------------------------------------------------------------------------
  Starting Davidson ... 
--------------------------------------------------------------------------------
   It NVec Conv  Avg. Norm  Max. Norm  Conv. states           Remark
--------------------------------------------------------------------------------
        20    0  2.257e-01  1.046e+00 15.1752 n n n n n n n n Guess.
    1   40    0  1.159e-01  9.274e-01 14.9031 n n n n n n n n 
    2   60    0  5.422e-02  5.270e-01 14.8830 n n n n n n n n 
    3   80    0  3.092e-02  3.254e-01 14.8811 n n n n n n n n 
    4  100    0  3.649e-02  4.614e-01 14.8807 n n n n n n n n 
    5   40    0  2.245e-02  3.649e-01 14.8806 n n n n n n n n Subspace collapsed.
    6   60    0  1.947e-02  2.959e-01 14.8806 n n n n n n n n 
    7   80    0  2.800e-02  4.147e-01 14.8806 n n n n n n n n 
    8  100    0  2.091e-02  3.035e-01 14.8806 n n n n n n n n 
    9   40    0  1.880e-02  3.176e-01 14.8806 n n n n n n n n Subspace collapsed.
   10   60    0  7.972e-03  1.353e-01 14.8806 n n n n n n n n 
   11   80    0  8.763e-03  1.622e-01 14.8806 n n n n n n n n 
   12  100    1  4.731e-03  8.905e-02 14.8806 y n n n n n n n 
   13   40    1  2.343e-03  4.416e-02 14.8806 y n n n n n n n Subspace collapsed.
   14   60    3  1.439e-03  2.728e-02 14.8806 y n y y n n n n 
   15   80    3  7.251e-04  1.402e-02 14.8806 y n y y n n n n 
   16  100    4  2.820e-04  5.422e-03 14.8806 y n y y y n n n 
   17   40    5  1.799e-04  3.486e-03 14.8806 y y y y y n n n Subspace collapsed.
   18   60    5  1.254e-04  2.441e-03 14.8806 y y y y y n n n 
   19   80    5  8.205e-05  1.601e-03 14.8806 y y y y y n n n 
   20  100    5  7.286e-05  1.438e-03 14.8806 y y y y y n n n 
   21   40    5  3.855e-05  7.621e-04 14.8806 y y y y y n n n Subspace collapsed.
   22   60    5  3.291e-05  6.524e-04 14.8806 y y y y y n n n 
   23   80    6  2.054e-05  4.072e-04 14.8806 y y y y y n y n 
   24  100    6  1.983e-05  3.943e-04 14.8806 y y y y y n y n 
   25   40    7  1.145e-05  2.276e-04 14.8806 y y y y y n y n Subspace collapsed.
   26   59    7  1.231e-05  2.453e-04 14.8806 y y y y y n y n 
   27   78   10  7.921e-06  1.576e-04 14.8806 y y y y y n y n 
   28   96   12  8.031e-06  1.600e-04 14.8806 y y y y y n y y 
   29  100   12  8.101e-06  1.614e-04 14.8806 y y y y y n y y 
   30   37   13  4.239e-06  8.442e-05 14.8806 y y y y y y y y Subspace collapsed.
   31   53   14  3.914e-06  7.807e-05 14.8806 y y y y y y y y 
   32   69   16  2.230e-06  4.434e-05 14.8806 y y y y y y y y 
   33   84   16  2.451e-06  4.877e-05 14.8806 y y y y y y y y 
   34   84   16  2.451e-06  4.877e-05 14.8806 y y y y y y y y 
   35  100   17  1.857e-06  3.695e-05 14.8806 y y y y y y y y 
   36   36   18  8.472e-07  1.683e-05 14.8806 y y y y y y y y Subspace collapsed.
   37   51   18  7.542e-07  1.500e-05 14.8806 y y y y y y y y 
   38   66   19  5.628e-07  1.121e-05 14.8806 y y y y y y y y 
   39   81   19  3.902e-07  7.748e-06 14.8806 y y y y y y y y 
   40   96   19  3.460e-07  6.856e-06 14.8806 y y y y y y y y 
   41  100   19  3.383e-07  6.713e-06 14.8806 y y y y y y y y 
   42   35   19  2.185e-07  4.351e-06 14.8806 y y y y y y y y Subspace collapsed.
   43   50   19  2.190e-07  4.366e-06 14.8806 y y y y y y y y 
   44   65   19  1.496e-07  2.975e-06 14.8806 y y y y y y y y 
   45   80   19  1.103e-07  2.185e-06 14.8806 y y y y y y y y 
   46   95   19  1.074e-07  2.128e-06 14.8806 y y y y y y y y 
   47   96   19  1.074e-07  2.128e-06 14.8806 y y y y y y y y 
   48  100   19  7.409e-08  1.453e-06 14.8806 y y y y y y y y 
   49   34   20  3.330e-08  6.439e-07 14.8806 y y y y y y y y Converged.
--------------------------------------------------------------------------------
  Davidson Summary: 
 ------------------------------------------------------------
  State  0: excitation energy =  14.8806 a.u.   (converged)
  State  1: excitation energy =  15.0154 a.u.   (converged)
  State  2: excitation energy =  15.0316 a.u.   (converged)
  State  3: excitation energy =  15.0895 a.u.   (converged)
  State  4: excitation energy =  15.1014 a.u.   (converged)
  State  5: excitation energy =  15.1273 a.u.   (converged)
  State  6: excitation energy =  15.1343 a.u.   (converged)
  State  7: excitation energy =  15.1385 a.u.   (converged)
  State  8: excitation energy =  15.1680 a.u.   (converged)
  State  9: excitation energy =  15.1722 a.u.   (converged)
  State 10: excitation energy =  15.1753 a.u.   (converged)
  State 11: excitation energy =  15.1855 a.u.   (converged)
  State 12: excitation energy =  15.2080 a.u.   (converged)
  State 13: excitation energy =  15.2177 a.u.   (converged)
  State 14: excitation energy =  15.2246 a.u.   (converged)
  State 15: excitation energy =  15.2533 a.u.   (converged)
  State 16: excitation energy =  15.2547 a.u.   (converged)
  State 17: excitation energy =  15.2610 a.u.   (converged)
  State 18: excitation energy =  15.2701 a.u.   (converged)
  State 19: excitation energy =  15.2802 a.u.   (converged)
 ------------------------------------------------------------


--------------------------------------------------------------------------------
                             Excited State Summary
--------------------------------------------------------------------------------

  Excited state  1 (A)                                             [converged]
  ----------------------------------------------------------------------------
  Term symbol:  2 (-) A                                     R^2 =  1.58050e-13

  Total energy:                                           -248.5017377999 a.u.
  Excitation energy:                                             404.921551 eV

  Osc. strength:                                                      0.021803
  Trans. dip. moment [a.u.]:           [   0.046881,   -0.000000,    0.000000]
  <i|r^2|0> [a.u.]:                    [  -0.000000,   -0.000000,   -0.000000]

  V1^2 = 0.8718, V2^2 = 0.1282

  Important amplitudes:
     core i     occ j      vir a      vir b          v   
    ------------------------------------------------------
     1 (A) B              22 (A) B                 0.9266
     1 (A) B              43 (A) B                 0.0769
    ------------------------------------------------------
  ----------------------------------------------------------------------------


  Excited state  2 (A)                                             [converged]
  ----------------------------------------------------------------------------
  Term symbol:  3 (-) A                                     R^2 =  5.04942e-13

  Total energy:                                           -248.3669705090 a.u.
  Excitation energy:                                             408.588756 eV

  Osc. strength:                                                      0.000071
  Trans. dip. moment [a.u.]:           [   0.002656,    0.000000,    0.000000]
  <i|r^2|0> [a.u.]:                    [  -0.000000,   -0.000000,   -0.000000]

  V1^2 = 0.0064, V2^2 = 0.9936

  Important amplitudes:
     core i     occ j      vir a      vir b          v   
    ------------------------------------------------------
     1 (A) A   21 (A) B   22 (A) A   22 (A) B     -0.6674
     1 (A) A   21 (A) B   50 (A) A   22 (A) B      0.1226
    ------------------------------------------------------
  ----------------------------------------------------------------------------


  Excited state  3 (A)                                             [converged]
  ----------------------------------------------------------------------------
  Term symbol:  4 (-) A                                     R^2 =  4.19654e-13

  Total energy:                                           -248.3507610862 a.u.
  Excitation energy:                                             409.029837 eV

  Osc. strength:                                                      0.000000
  Trans. dip. moment [a.u.]:           [  -0.000000,    0.000000,    0.000000]
  <i|r^2|0> [a.u.]:                    [  -0.000000,    0.000000,    0.000000]

  V1^2 = 0.8527, V2^2 = 0.1473

  Important amplitudes:
     core i     occ j      vir a      vir b          v   
    ------------------------------------------------------
     1 (A) A              22 (A) A                 0.9131
     1 (A) A              50 (A) A                -0.1338
    ------------------------------------------------------
  ----------------------------------------------------------------------------


  Excited state  4 (A)                                             [converged]
  ----------------------------------------------------------------------------
  Term symbol:  5 (-) A                                     R^2 =  1.24800e-13

  Total energy:                                           -248.2928700513 a.u.
  Excitation energy:                                             410.605132 eV

  Osc. strength:                                                      0.000000
  Trans. dip. moment [a.u.]:           [   0.000000,    0.000000,   -0.000000]
  <i|r^2|0> [a.u.]:                    [   0.000000,    0.000000,    0.000000]

  V1^2 = 0.7989, V2^2 = 0.2011

  Important amplitudes:
     core i     occ j      vir a      vir b          v   
    ------------------------------------------------------
     1 (A) B              23 (A) B                -0.8888
     1 (A) B   17 (A) A   22 (A) A   23 (A) B      0.1154
    ------------------------------------------------------
  ----------------------------------------------------------------------------


  Excited state  5 (A)                                             [converged]
  ----------------------------------------------------------------------------
  Term symbol:  6 (-) A                                     R^2 =  3.55630e-13

  Total energy:                                           -248.2809320648 a.u.
  Excitation energy:                                             410.929981 eV

  Osc. strength:                                                      0.000000
  Trans. dip. moment [a.u.]:           [  -0.000000,    0.000000,    0.000000]
  <i|r^2|0> [a.u.]:                    [  -0.000000,   -0.000000,   -0.000000]

  V1^2 = 0.8054, V2^2 = 0.1946

  Important amplitudes:
     core i     occ j      vir a      vir b          v   
    ------------------------------------------------------
     1 (A) A              23 (A) A                 0.8929
     1 (A) A   12 (A) B   23 (A) A   22 (A) B      0.0890
    ------------------------------------------------------
  ----------------------------------------------------------------------------


  Excited state  6 (A)                                             [converged]
  ----------------------------------------------------------------------------
  Term symbol:  7 (-) A                                     R^2 =  1.15776e-11

  Total energy:                                           -248.2550620671 a.u.
  Excitation energy:                                             411.633940 eV

  Osc. strength:                                                      0.000000
  Trans. dip. moment [a.u.]:           [   0.000000,   -0.000069,    0.000000]
  <i|r^2|0> [a.u.]:                    [   0.000000,    0.000000,   -0.000000]

  V1^2 = 0.0004, V2^2 = 0.9996

  Important amplitudes:
     core i     occ j      vir a      vir b          v   
    ------------------------------------------------------
     1 (A) A   21 (A) B   23 (A) A   22 (A) B     -0.6226
     1 (A) A   19 (A) B   29 (A) A   22 (A) B     -0.2005
    ------------------------------------------------------
  ----------------------------------------------------------------------------


  Excited state  7 (A)                                             [converged]
  ----------------------------------------------------------------------------
  Term symbol:  8 (-) A                                     R^2 =  5.35460e-13

  Total energy:                                           -248.2479998166 a.u.
  Excitation energy:                                             411.826113 eV

  Osc. strength:                                                      0.000000
  Trans. dip. moment [a.u.]:           [   0.000000,    0.000000,   -0.000000]
  <i|r^2|0> [a.u.]:                    [   0.000000,   -0.000000,   -0.000000]

  V1^2 = 0.0028, V2^2 = 0.9972

  Important amplitudes:
     core i     occ j      vir a      vir b          v   
    ------------------------------------------------------
     1 (A) B   21 (A) A   22 (A) A   22 (A) B      0.6804
     1 (A) B   21 (A) A   50 (A) A   22 (A) B     -0.1139
    ------------------------------------------------------
  ----------------------------------------------------------------------------


  Excited state  8 (A)                                             [converged]
  ----------------------------------------------------------------------------
  Term symbol:  9 (-) A                                     R^2 =  1.13035e-11

  Total energy:                                           -248.2437927639 a.u.
  Excitation energy:                                             411.940593 eV

  Osc. strength:                                                      0.000000
  Trans. dip. moment [a.u.]:           [  -0.000000,   -0.000000,    0.000000]
  <i|r^2|0> [a.u.]:                    [   0.000000,   -0.000000,   -0.000000]

  V1^2 = 0.0000, V2^2 = 1.0000

  Important amplitudes:
     core i     occ j      vir a      vir b          v   
    ------------------------------------------------------
     1 (A) A   19 (A) B   22 (A) A   22 (A) B     -0.6853
     1 (A) A   19 (A) B   50 (A) A   22 (A) B      0.0988
    ------------------------------------------------------
  ----------------------------------------------------------------------------


  Excited state  9 (A)                                             [converged]
  ----------------------------------------------------------------------------
  Term symbol:  10 (-) A                                    R^2 =  4.23105e-11

  Total energy:                                           -248.2143048140 a.u.
  Excitation energy:                                             412.743001 eV

  Osc. strength:                                                      0.000003
  Trans. dip. moment [a.u.]:           [   0.000000,   -0.000575,   -0.000000]
  <i|r^2|0> [a.u.]:                    [   0.000000,   -0.000000,   -0.000000]

  V1^2 = 0.0002, V2^2 = 0.9998

  Important amplitudes:
     core i     occ j      vir a      vir b          v   
    ------------------------------------------------------
     1 (A) B   21 (A) B   22 (A) B   23 (A) B      0.6106
     1 (A) B   21 (A) A   29 (A) A   22 (A) B     -0.1334
    ------------------------------------------------------
  ----------------------------------------------------------------------------


  Excited state 10 (A)                                             [converged]
  ----------------------------------------------------------------------------
  Term symbol:  11 (-) A                                    R^2 =  8.42783e-11

  Total energy:                                           -248.2100823676 a.u.
  Excitation energy:                                             412.857899 eV

  Osc. strength:                                                      0.000000
  Trans. dip. moment [a.u.]:           [  -0.000000,   -0.000000,    0.000000]
  <i|r^2|0> [a.u.]:                    [   0.000820,   -0.000112,    0.000026]

  V1^2 = 0.0006, V2^2 = 0.9994

  Important amplitudes:
     core i     occ j      vir a      vir b          v   
    ------------------------------------------------------
     1 (A) A   19 (A) B   23 (A) A   22 (A) B     -0.5366
     1 (A) A   21 (A) B   29 (A) A   22 (A) B     -0.3392
    ------------------------------------------------------
  ----------------------------------------------------------------------------


  Excited state 11 (A)                                             [converged]
  ----------------------------------------------------------------------------
  Term symbol:  12 (-) A                                    R^2 =  4.05825e-11

  Total energy:                                           -248.2070385057 a.u.
  Excitation energy:                                             412.940727 eV

  Osc. strength:                                                      0.000000
  Trans. dip. moment [a.u.]:           [   0.000000,   -0.000000,    0.000000]
  <i|r^2|0> [a.u.]:                    [   0.000247,    0.000208,    0.000300]

  V1^2 = 0.0009, V2^2 = 0.9991

  Important amplitudes:
     core i     occ j      vir a      vir b          v   
    ------------------------------------------------------
     1 (A) B   21 (A) A   23 (A) A   22 (A) B     -0.4860
     1 (A) B   19 (A) B   22 (A) B   23 (A) B      0.3191
    ------------------------------------------------------
  ----------------------------------------------------------------------------


  Excited state 12 (A)                                             [converged]
  ----------------------------------------------------------------------------
  Term symbol:  13 (-) A                                    R^2 =  4.59983e-11

  Total energy:                                           -248.1968655307 a.u.
  Excitation energy:                                             413.217548 eV

  Osc. strength:                                                      0.004510
  Trans. dip. moment [a.u.]:           [  -0.000000,    0.000000,   -0.021106]
  <i|r^2|0> [a.u.]:                    [   0.000000,   -0.000000,   -0.000000]

  V1^2 = 0.5505, V2^2 = 0.4495

  Important amplitudes:
     core i     occ j      vir a      vir b          v   
    ------------------------------------------------------
     1 (A) A              29 (A) A                 0.6856
     1 (A) A   20 (A) B   22 (A) A   22 (A) B      0.3770
    ------------------------------------------------------
  ----------------------------------------------------------------------------


  Excited state 13 (A)                                             [converged]
  ----------------------------------------------------------------------------
  Term symbol:  14 (-) A                                    R^2 =  6.57025e-09

  Total energy:                                           -248.1743217929 a.u.
  Excitation energy:                                             413.830994 eV

  Osc. strength:                                                      0.019263
  Trans. dip. moment [a.u.]:           [  -0.000000,   -0.000000,   -0.043589]
  <i|r^2|0> [a.u.]:                    [  -0.000000,    0.000000,    0.000000]

  V1^2 = 0.7377, V2^2 = 0.2623

  Important amplitudes:
     core i     occ j      vir a      vir b          v   
    ------------------------------------------------------
     1 (A) B              25 (A) B                -0.8323
     1 (A) A              29 (A) A                 0.1828
    ------------------------------------------------------
  ----------------------------------------------------------------------------


  Excited state 14 (A)                                             [converged]
  ----------------------------------------------------------------------------
  Term symbol:  15 (-) A                                    R^2 =  2.57459e-10

  Total energy:                                           -248.1646673258 a.u.
  Excitation energy:                                             414.093706 eV

  Osc. strength:                                                      0.000000
  Trans. dip. moment [a.u.]:           [   0.000000,   -0.000000,    0.000000]
  <i|r^2|0> [a.u.]:                    [  -0.000000,   -0.000000,   -0.000000]

  V1^2 = 0.0041, V2^2 = 0.9959

  Important amplitudes:
     core i     occ j      vir a      vir b          v   
    ------------------------------------------------------
     1 (A) B   19 (A) A   22 (A) A   22 (A) B     -0.6520
     1 (A) B   19 (A) A   50 (A) A   22 (A) B      0.1381
    ------------------------------------------------------
  ----------------------------------------------------------------------------


  Excited state 15 (A)                                             [converged]
  ----------------------------------------------------------------------------
  Term symbol:  16 (-) A                                    R^2 =  5.64448e-09

  Total energy:                                           -248.1577393752 a.u.
  Excitation energy:                                             414.282225 eV

  Osc. strength:                                                      0.000000
  Trans. dip. moment [a.u.]:           [  -0.000000,    0.000000,   -0.000000]
  <i|r^2|0> [a.u.]:                    [   0.003566,   -0.000323,   -0.000387]

  V1^2 = 0.0042, V2^2 = 0.9958

  Important amplitudes:
     core i     occ j      vir a      vir b          v   
    ------------------------------------------------------
     1 (A) B   20 (A) A   22 (A) A   22 (A) B      0.5541
     1 (A) B   21 (A) B   22 (A) B   25 (A) B     -0.2535
    ------------------------------------------------------
  ----------------------------------------------------------------------------


  Excited state 16 (A)                                             [converged]
  ----------------------------------------------------------------------------
  Term symbol:  17 (-) A                                    R^2 =  6.43871e-07

  Total energy:                                           -248.1289945088 a.u.
  Excitation energy:                                             415.064412 eV

  Osc. strength:                                                      0.000000
  Trans. dip. moment [a.u.]:           [  -0.000000,   -0.000000,   -0.000000]
  <i|r^2|0> [a.u.]:                    [   0.005850,   -0.000209,   -0.000051]

  V1^2 = 0.0020, V2^2 = 0.9980

  Important amplitudes:
     core i     occ j      vir a      vir b          v   
    ------------------------------------------------------
     1 (A) A   18 (A) B   22 (A) A   22 (A) B     -0.4888
     1 (A) A   21 (A) B   29 (A) A   22 (A) B     -0.2934
    ------------------------------------------------------
  ----------------------------------------------------------------------------


  Excited state 17 (A)                                             [converged]
  ----------------------------------------------------------------------------
  Term symbol:  18 (-) A                                    R^2 =  4.31242e-09

  Total energy:                                           -248.1276106561 a.u.
  Excitation energy:                                             415.102069 eV

  Osc. strength:                                                      0.000270
  Trans. dip. moment [a.u.]:           [  -0.005157,    0.000000,   -0.000000]
  <i|r^2|0> [a.u.]:                    [   0.000000,   -0.000000,   -0.000000]

  V1^2 = 0.8131, V2^2 = 0.1869

  Important amplitudes:
     core i     occ j      vir a      vir b          v   
    ------------------------------------------------------
     1 (A) A              24 (A) A                 0.6401
     1 (A) A              28 (A) A                -0.4425
    ------------------------------------------------------
  ----------------------------------------------------------------------------


  Excited state 18 (A)                                             [converged]
  ----------------------------------------------------------------------------
  Term symbol:  19 (-) A                                    R^2 =  1.82544e-08

  Total energy:                                           -248.1213064663 a.u.
  Excitation energy:                                             415.273615 eV

  Osc. strength:                                                      0.002064
  Trans. dip. moment [a.u.]:           [   0.014244,    0.000000,   -0.000000]
  <i|r^2|0> [a.u.]:                    [  -0.000000,    0.000000,   -0.000000]

  V1^2 = 0.8082, V2^2 = 0.1918

  Important amplitudes:
     core i     occ j      vir a      vir b          v   
    ------------------------------------------------------
     1 (A) A              24 (A) A                -0.5821
     1 (A) B              29 (A) B                 0.4623
    ------------------------------------------------------
  ----------------------------------------------------------------------------


  Excited state 19 (A)                                             [converged]
  ----------------------------------------------------------------------------
  Term symbol:  20 (-) A                                    R^2 =  1.24573e-07

  Total energy:                                           -248.1122806867 a.u.
  Excitation energy:                                             415.519218 eV

  Osc. strength:                                                      0.001180
  Trans. dip. moment [a.u.]:           [  -0.010767,    0.000000,   -0.000000]
  <i|r^2|0> [a.u.]:                    [   0.000000,   -0.000000,   -0.000000]

  V1^2 = 0.8065, V2^2 = 0.1935

  Important amplitudes:
     core i     occ j      vir a      vir b          v   
    ------------------------------------------------------
     1 (A) B              24 (A) B                 0.7381
     1 (A) A              28 (A) A                -0.4078
    ------------------------------------------------------
  ----------------------------------------------------------------------------


  Excited state 20 (A)                                             [converged]
  ----------------------------------------------------------------------------
  Term symbol:  21 (-) A                                    R^2 =  1.14343e-07

  Total energy:                                           -248.1021022922 a.u.
  Excitation energy:                                             415.796187 eV

  Osc. strength:                                                      0.000000
  Trans. dip. moment [a.u.]:           [  -0.000000,   -0.000000,    0.000000]
  <i|r^2|0> [a.u.]:                    [  -0.000000,    0.000000,    0.000000]

  V1^2 = 0.7910, V2^2 = 0.2090

  Important amplitudes:
     core i     occ j      vir a      vir b          v   
    ------------------------------------------------------
     1 (A) A              25 (A) A                 0.8664
     1 (A) A              30 (A) A                -0.1683
    ------------------------------------------------------
  ----------------------------------------------------------------------------


--------------------------------------------------------------------------------
  Time of ADC calculation:  CPU 9294.55 s  wall 3753.92 s
================================================================================
 
 --------------------------------------------------------------
 
                    Orbital Energies (a.u.)
 --------------------------------------------------------------
 
 Alpha MOs
 -- Occupied --
-15.594 -15.594 -11.289 -11.289 -11.288 -11.288  -1.293  -1.206
 -1.050  -0.902  -0.886  -0.734  -0.701  -0.679  -0.612  -0.549
 -0.546  -0.539  -0.446  -0.398  -0.348
 -- Virtual --
  0.119   0.133   0.253   0.277   0.301   0.314   0.353   0.353
  0.469   0.491   0.493   0.619   0.683   0.700   0.733   0.744
  0.802   0.820   0.823   0.841   0.848   0.887   0.906   0.950
  1.049   1.058   1.070   1.085   1.091   1.106   1.158   1.173
  1.207   1.244   1.275   1.345   1.349   1.478   1.502   1.558
  1.633   1.736   1.751   1.784   1.785   1.792   1.928   2.020
  2.071   2.139   2.157   2.290   2.352   2.426   2.479   2.528
  2.531   2.555   2.600   2.668   2.745   2.825   2.875   2.917
  3.028   3.055   3.074   3.081   3.163   3.414   3.722   4.281
  4.489   4.542   4.603   4.731   4.904
 
 Beta MOs
 -- Occupied --
-15.596 -15.596 -11.288 -11.288 -11.287 -11.287  -1.295  -1.210
 -1.045  -0.888  -0.875  -0.700  -0.676  -0.669  -0.613  -0.591
 -0.543  -0.521  -0.391  -0.348  -0.230
 -- Virtual --
 -0.083   0.137   0.261   0.275   0.279   0.303   0.314   0.345
  0.473   0.488   0.504   0.629   0.684   0.726   0.735   0.738
  0.795   0.822   0.825   0.843   0.884   0.885   0.919   0.977
  1.023   1.073   1.079   1.079   1.088   1.101   1.106   1.177
  1.206   1.251   1.276   1.350   1.356   1.486   1.486   1.552
  1.629   1.741   1.751   1.763   1.781   1.784   1.938   2.022
  2.081   2.152   2.169   2.295   2.356   2.419   2.482   2.518
  2.537   2.546   2.601   2.645   2.738   2.819   2.878   2.914
  3.036   3.044   3.074   3.092   3.181   3.427   3.734   4.285
  4.490   4.544   4.605   4.731   4.908
 --------------------------------------------------------------
 
          Ground-State Mulliken Net Atomic Charges

     Atom                 Charge (a.u.)    Spin (a.u.)
  --------------------------------------------------------
      1 C                    -0.004266      -0.011093
      2 C                    -0.004266      -0.011093
      3 N                    -0.463067      -0.052251
      4 N                    -0.463067      -0.052251
      5 C                    -0.004266      -0.011093
      6 C                    -0.004266      -0.011093
      7 H                     0.235799       0.037219
      8 H                     0.235799       0.037219
      9 H                     0.235799       0.037219
     10 H                     0.235799       0.037219
  --------------------------------------------------------
  Sum of atomic charges =     0.000000
  Sum of spin   charges =     0.000000

 -----------------------------------------------------------------
                    Cartesian Multipole Moments
 -----------------------------------------------------------------
    Charge (ESU x 10^10)
                 0.0000
    Dipole Moment (Debye)
         X       0.0000      Y       0.0000      Z       0.0000
       Tot       0.0000
    Quadrupole Moments (Debye-Ang)
        XX     -37.8062     XY       0.0000     YY     -25.8350
        XZ       0.0000     YZ       0.0000     ZZ     -37.7918
    Octopole Moments (Debye-Ang^2)
       XXX       0.0000    XXY       0.0000    XYY       0.0000
       YYY       0.0000    XXZ       0.0000    XYZ       0.0000
       YYZ       0.0000    XZZ       0.0000    YZZ       0.0000
       ZZZ       0.0000
    Hexadecapole Moments (Debye-Ang^3)
      XXXX    -275.6142   XXXY       0.0000   XXYY     -65.2025
      XYYY       0.0000   YYYY    -219.5461   XXXZ       0.0000
      XXYZ       0.0000   XYYZ       0.0000   YYYZ       0.0000
      XXZZ     -51.6185   XYZZ       0.0000   YYZZ     -55.4930
      XZZZ       0.0000   YZZZ       0.0000   ZZZZ     -38.3073
 -----------------------------------------------------------------
Archival summary:
1\1\tp-linux1\SP\HF\6-31G*\244\thomas\ThuJan2612:56:132017ThuJan2612:56:132017\0\\#,HF,6-31G*,\\0,1\N\C,1,1.34606\H,2,1.0834,1,116.808\C,1,1.34606,2,115.185,3,-180,0\H,4,1.0834,1,116.808,2,-180,0\C,2,1.39225,1,122.408,3,-180,0\H,6,1.0834,2,120.785,1,-180,0\N,6,1.34606,2,122.408,1,0,0\C,8,1.34606,6,115.185,2,0,0\H,9,1.0834,8,116.808,6,-180,0\\HF=-262.503951\\@

 Total job time:  3757.42s(wall), 9307.13s(cpu) 
 Thu Jan 26 12:56:13 2017

        *************************************************************
        *                                                           *
        *  Thank you very much for using Q-Chem.  Have a nice day.  *
        *                                                           *
        *************************************************************


0 sent ACK to 0 
now end server 0 ... 
cleanup process ... done
remove work dirs /scratch/qchem/qchem23522.0 -- /scratch/qchem/qchem23522.0
rm -rf /scratch/qchem/qchem23522.0
rm -rf /scratch/qchem/qchem23522
