You are running Q-Chem version: 4.3

#
# job setting
#
local host:  tp-linux1
current dir: /home/thomas/CODE_displace_coords/qchem
input file:  cvs-adc-triplet.inp
output file: 
nprocs     : 1
nthreads   : 8
#
# qchem installation setting
#
QC:          /mnt/software/qchem
QCAUX:       /mnt/software/qchem/qcaux
QCPROG:      /mnt/software/qchem/exe/qcprog.exe
QCPROG_S:    /mnt/software/qchem/exe/qcprog.exe_s
PARALLEL:    -DPARALLEL
QCMPI:       mpich
#
# qchem directory setting
#
qcrun:       qchem24875
QCSCRATCH:   /scratch/qchem
QCLOCALSCR:  
QCTMPDIR:    /scratch/qchem
QCFILEPREF:  /scratch/qchem/qchem24875
QCSAVEDIR:   
workdirs:    /scratch/qchem/qchem24875
workdir0:    /scratch/qchem/qchem24875
partmpdirs =  
#
# parallel setting
#
QCRSH:           ssh
QCMPI:           mpich
QCMPIRUN:        /mnt/software/qchem/bin/mpi/mpirun_qchem
QCMACHINEFILE:   /mnt/software/qchem/bin/mpi/machines
127.0.1.1 32

#
# env setting
#
exported envs:   QC QCAUX QCSCRATCH QCRUNNAME QCFILEPREF QCPROG QCPROG_S GUIFILE

Running Job 1 of 1 cvs-adc-triplet.inp
qchem cvs-adc-triplet.inp_24875.0 /scratch/qchem/qchem24875/ 1
/mnt/software/qchem/bin/mpi/mpirun_qchem -machinefile /mnt/software/qchem/bin/mpi/machines -np 1 /mnt/software/qchem/exe/qcprog.exe cvs-adc-triplet.inp_24875.0 /scratch/qchem/qchem24875/

Process 0 of 1 is on tp-linux1 - thread support 0
initial socket setup ...start
initial socket setup ...done 
now start server 0 ... 

cmd = ssh tp-linux1 /mnt/software/qchem/bin/get_hostid 575402188 > /scratch/qchem/qchem24875/lic.dat
                  Welcome to Q-Chem
     A Quantum Leap Into The Future Of Chemistry


 Q-Chem 4.3, Q-Chem, Inc., Pleasanton, CA (2015)

 Y. Shao,  Z. Gan,  E. Epifanovsky,  A. T. B. Gilbert,  M. Wormit,  
 J. Kussmann,  A. W. Lange,  A. Behn,  J. Deng,  X. Feng,  D. Ghosh,  
 M. Goldey,  P. R. Horn,  L. D. Jacobson,  I. Kaliman,  R. Z. Khaliullin,  
 T. Kus,  A. Landau,  J. Liu,  E. I. Proynov,  Y. M. Rhee,  R. M. Richard,  
 M. A. Rohrdanz,  R. P. Steele,  E. J. Sundstrom,  H. L. Woodcock III,  
 P. M. Zimmerman,  D. Zuev,  B. Albrecht,  E. Alguire,  B. Austin,  
 S. A. Baeppler,  G. J. O. Beran,  Y. A. Bernard,  E. Berquist,  
 K. Brandhorst,  K. B. Bravaya,  S. T. Brown,  D. Casanova,  C.-M. Chang,  
 Y. Chen,  S. H. Chien,  K. D. Closser,  D. L. Crittenden,  M. Diedenhofen,  
 R. A. DiStasio Jr.,  H. Do,  A. D. Dutoi,  R. G. Edgar,  P.-T. Fang,  
 S. Fatehi,  Q. Feng,  L. Fusti-Molnar,  A. Ghysels,  
 A. Golubeva-Zadorozhnaya,  J. Gomes,  A. Gunina,  M. W. D. Hanson-Heine,  
 P. H. P. Harbach,  A. W. Hauser,  E. G. Hohenstein,  Z. C. Holden,  K. Hui,  
 T.-C. Jagau,  H. Ji,  B. Kaduk,  K. Khistyaev,  Jaehoon Kim,  Jihan Kim,  
 R. A. King,  P. Klunzinger,  D. Kosenkov,  T. Kowalczyk,  C. M. Krauter,  
 K. U. Lao,  A. Laurent,  K. V. Lawler,  S. Lehtola,  S. V. Levchenko,  
 C. Y. Lin,  Y.-S. Lin,  F. Liu,  E. Livshits,  R. C. Lochan,  A. Luenser,  
 P. Manohar,  S. F. Manzer,  S.-P. Mao,  N. Mardirossian,  A. V. Marenich,  
 L. A. Martinez-Martinez,  S. A. Maurer,  N. J. Mayhall,  K. Nanda,  
 C. M. Oana,  R. Olivares-Amaya,  D. P. O'Neill,  J. A. Parkhill,  
 T. M. Perrine,  R. Peverati,  P. A. Pieniazek,  F. Plasser,  A. Prociuk,  
 D. R. Rehn,  E. Rosta,  N. J. Russ,  N. Sergueev,  S. M. Sharada,  
 S. Sharma,  D. W. Small,  A. Sodt,  T. Stauch,  T. Stein,  D. Stuck,  
 Y.-C. Su,  A. J. W. Thom,  T. Tsuchimochi,  L. Vogt,  O. Vydrov,  T. Wang,  
 M. A. Watson,  J. Wenzel,  A. White,  C. F. Williams,  V. Vanovschi,  
 S. Yeganeh,  S. R. Yost,  Z.-Q. You,  I. Y. Zhang,  X. Zhang,  Y. Zhao,  
 B. R. Brooks,  G. K. L. Chan,  D. M. Chipman,  C. J. Cramer,  
 W. A. Goddard III,  M. S. Gordon,  W. J. Hehre,  A. Klamt,  
 H. F. Schaefer III,  M. W. Schmidt,  C. D. Sherrill,  D. G. Truhlar,  
 A. Warshel,  X. Xu,  A. Aspuru-Guzik,  R. Baer,  A. T. Bell,  N. A. Besley,  
 J.-D. Chai,  A. Dreuw,  B. D. Dunietz,  T. R. Furlani,  S. R. Gwaltney,  
 C.-P. Hsu,  Y. Jung,  J. Kong,  D. S. Lambrecht,  W. Liang,  C. Ochsenfeld,  
 V. A. Rassolov,  L. V. Slipchenko,  J. E. Subotnik,  T. Van Voorhis,  
 J. M. Herbert,  A. I. Krylov,  P. M. W. Gill,  M. Head-Gordon

 Contributors to earlier versions of Q-Chem not listed above: 
 R. D. Adamson,  J. Baker,  E. F. C. Byrd,  A. K. Chakraborty,  C.-L. Cheng,  
 H. Dachsel,  R. J. Doerksen,  G. Hawkins,  A. Heyden,  S. Hirata,  
 G. Kedziora,  F. J. Keil,  C. Kelley,  P. P. Korambath,  W. Kurlancheek,  
 A. M. Lee,  M. S. Lee,  D. Liotard,  I. Lotan,  P. E. Maslen,  N. Nair,  
 D. Neuhauser,  R. Olson,  B. Peters,  J. Ritchie,  N. E. Schultz,  
 N. Shenvi,  A. C. Simmonett,  K. S. Thanthiriwatte,  Q. Wu,  W. Zhang

 Please cite Q-Chem as follows:
 Y. Shao et al., Mol. Phys. 113, 184-215 (2015)
 DOI: 10.1080/00268976.2014.952696

 Q-Chem 4.3.0 for Intel X86 Linux

 Parts of Q-Chem use Armadillo 5.200.1 (Boston Tea Smuggler).
 http://arma.sourceforge.net/

 Q-Chem begins on Thu Jan 26 12:18:28 2017  

Host: 
0

     Scratch files written to /scratch/qchem/qchem24875//
 Nov1815 1189b_ 19540  19532 5443   
 Parallel job on  1  processors
Processing $rem in /mnt/software/qchem/config/preferences.
 MEM_TOTAL  2000 

Checking the input file for inconsistencies... 	...done.

--------------------------------------------------------------
User input:
--------------------------------------------------------------
$comment
job3 - cvs-adc(2)-x calculation with mom to prevent collapse to ground state
$end

$molecule
0 3
C    -0.696126    -1.136419     0.000000
C     0.696126    -1.136419     0.000000
N    -1.417532     0.000000     0.000000
N     1.417532     0.000000     0.000000
C     0.696126     1.136419     0.000000
C    -0.696126     1.136419     0.000000
H     1.250625     2.067160     0.000000
H    -1.250625     2.067160     0.000000
H     1.250625    -2.067160     0.000000
H    -1.250625    -2.067160     0.000000
$end

$rem
mem_total 3000
mem_static 1500
sym_ignore true
method cvs-adc(2)-x
basis 6-31G*
ee_singlets 20
cc_rest_occ 1                  !only excitations from the 1st orbital (N 1s)
unrestricted  true
max_scf_cycles 200
$end

--------------------------------------------------------------
 ----------------------------------------------------------------
             Standard Nuclear Orientation (Angstroms)
    I     Atom           X                Y                Z
 ----------------------------------------------------------------
    1      C      -0.6961260000    -1.1364190000     0.0000000000
    2      C       0.6961260000    -1.1364190000     0.0000000000
    3      N      -1.4175320000     0.0000000000     0.0000000000
    4      N       1.4175320000     0.0000000000     0.0000000000
    5      C       0.6961260000     1.1364190000     0.0000000000
    6      C      -0.6961260000     1.1364190000     0.0000000000
    7      H       1.2506250000     2.0671600000     0.0000000000
    8      H      -1.2506250000     2.0671600000     0.0000000000
    9      H       1.2506250000    -2.0671600000     0.0000000000
   10      H      -1.2506250000    -2.0671600000     0.0000000000
 ----------------------------------------------------------------
 Nuclear Repulsion Energy =   207.9974042823 hartrees
 There are       22 alpha and       20 beta electrons
 Requested basis set is 6-31G(d)
 There are 32 shells and 98 basis functions

 Total QAlloc Memory Limit   3000 MB
 Mega-Array Size      1467 MB
 MEM_STATIC part      1500 MB

                       Distance Matrix (Angstroms)
             C (  1)   C (  2)   N (  3)   N (  4)   C (  5)   C (  6)
   C (  2)  1.392252
   N (  3)  1.346059  2.399791
   N (  4)  2.399791  1.346059  2.835064
   C (  5)  2.665363  2.272838  2.399791  1.346059
   C (  6)  2.272838  2.665363  1.346059  2.399791  1.392252
   H (  7)  3.748701  3.251213  3.375235  2.073887  1.083396  2.157804
   H (  8)  3.251213  3.748701  2.073887  3.375235  2.157804  1.083396
   H (  9)  2.157804  1.083396  3.375235  2.073887  3.251213  3.748701
   H ( 10)  1.083396  2.157804  2.073887  3.375235  3.748701  3.251213
             H (  7)   H (  8)   H (  9)
   H (  8)  2.501250
   H (  9)  4.134320  4.832065
   H ( 10)  4.832065  4.134320  2.501250
 
 tim1(1): 
  0.000000000000000E+000
 tim1(2): 
  0.000000000000000E+000
 A cutoff of  1.0D-11 yielded    513 shell pairs
 There are      4998 function pairs
 
 -------------------------------------------------------
 OpenMP Integral Computing Module                       
 Release: version 1.0, May 2013, Q-Chem Inc. Pittsburgh 
 -------------------------------------------------------
 Integral Job Info:
 Integral job number is                      11
 Integral operator is                         1
 short-range coefficients                     0
 long-range coefficients              100000000
 Omega coefficients                           0
 if combine SR and LR in K                    0
 Integral screening is                        0
 Integral computing path is                   2
 max size of driver memory is            800000
 size of driver memory is                593474
 size of scratch memory is              2260544
 max col of scratch BK array               1296
 max len of scratch array in speh3          155
 max len of scratch index in speh4           18
 max int batch size is                      520
 min int batch size is                       52
 fixed nKL is                                52
 max L of basis functions is                  2
 order of int derivative is                   0
 number of shells is                         32
 number of basis is                          98
 number of cartesian basis is                98
 number of contracted shell pairs           513
 number of primitive shell pairs           2277
 maxK2 (contraction) of shell pair           36
 max number of K2 of shell pair               1
 max number of CS2 of shell pair             58
 max number of PS2 of shell pair            348
 mem total for path MDJ                   28696
 -------------------------------------------------------
 Smallest overlap matrix eigenvalue = 1.40E-03

 Scale SEOQF with 1.000000e-01/1.000000e-01/1.000000e+00

 Standard Electronic Orientation quadrupole field applied
 Nucleus-field energy     =     0.0000000051 hartrees
 Guess from superposition of atomic densities
 Warning:  Energy on first SCF cycle will be non-variational
 An unrestricted Hartree-Fock SCF calculation will be
 performed using Pulay DIIS extrapolation
 SCF converges when DIIS error is below 1.0E-08
 using 8 threads for integral computing 
 ---------------------------------------
  Cycle       Energy         DIIS Error
 ---------------------------------------
    1    -264.8351357935      8.71E-02
    2    -262.4339752981      5.94E-03
    3    -262.5057879847      2.50E-03
    4    -262.5177289383      9.51E-04
    5    -262.5220412417      2.88E-04
    6    -262.5231741889      1.53E-04
    7    -262.5236965559      6.16E-05
    8    -262.5237805383      1.47E-05
    9    -262.5237866577      4.90E-06
   10    -262.5237874622      1.01E-06
   11    -262.5237875076      2.81E-07
   12    -262.5237875130      5.93E-08
   13    -262.5237875135      1.67E-08
   14    -262.5237875136      5.82E-09 Convergence criterion met
 ---------------------------------------
 <S^2> = 2.0908
 SCF time:  CPU 19.92 s  wall 3.93 s
 SCF   energy in the final basis set = -262.5237875136
 Total energy in the final basis set = -262.5237875136
================================================================================
|                                                                              |
|                                 A D C  M A N                                 |
|                                                                              |
 ------------------------------------------------------------------------------ 
|                                                                              |
| Components:                                                                  |
|                                                                              |
| - libvmm - 1.2-release                                                       |
|   Authors:                                                                   |
|   Evgeny Epifanovsky, Ilya Kaliman                                           |
|                                                                              |
| - libtensor - 2.4-trunk                                                      |
|   Authors:                                                                   |
|   Evgeny Epifanovsky, Michael Wormit, Dmitry Zuev, Sam Manzer                |
|                                                                              |
| - libwfa - 1.1-beta                                                          |
|   Authors:                                                                   |
|   Felix Plasser, Stefanie Baeppler, Benjamin Thomitzni, Michael Wormit       |
|                                                                              |
| - libadc - 1.0-beta                                                          |
|   Authors:                                                                   |
|   Michael Wormit, Philipp H. P. Harbach, Caroline Krauter, Dirk Rehn,        |
|   Matthias Schneider, Jan Wenzel                                             |
|                                                                              |
| - adcman - 2.4-beta                                                          |
|   Authors:                                                                   |
|   Michael Wormit, Philipp H. P. Harbach, Caroline Krauter, Dirk Rehn,        |
|   Jan Wenzel, Andreas Dreuw                                                  |
|                                                                              |
| Authors of earlier versions of ADCMAN:                                       |
| Andreas Dreuw, Jan Hendrik Starcke, Dirk Rehn, Michael Wormit                |
|                                                                              |
================================================================================

 
 Alpha MOs, Unrestricted
 -- Occupied --                  
-15.614 -15.614 -11.286 -11.286 -11.285 -11.285  -1.322  -1.248
  1 A     2 A     3 A     4 A     5 A     6 A     7 A     8 A                  
 -1.057  -0.934  -0.887  -0.739  -0.710  -0.683  -0.624  -0.610
  9 A    10 A    11 A    12 A    13 A    14 A    15 A    16 A                  
 -0.568  -0.554  -0.543  -0.465  -0.388  -0.247
 17 A    18 A    19 A    20 A    21 A    22 A                                  
 -- Virtual --                   
  0.142   0.254   0.269   0.278   0.301   0.313   0.339   0.461
 23 A    24 A    25 A    26 A    27 A    28 A    29 A    30 A                  
  0.486   0.492   0.618   0.678   0.700   0.729   0.736   0.797
 31 A    32 A    33 A    34 A    35 A    36 A    37 A    38 A                  
  0.817   0.819   0.828   0.844   0.886   0.893   0.949   1.010
 39 A    40 A    41 A    42 A    43 A    44 A    45 A    46 A                  
  1.040   1.048   1.073   1.086   1.089   1.104   1.174   1.198
 47 A    48 A    49 A    50 A    51 A    52 A    53 A    54 A                  
  1.244   1.276   1.342   1.343   1.476   1.479   1.537   1.618
 55 A    56 A    57 A    58 A    59 A    60 A    61 A    62 A                  
  1.730   1.736   1.754   1.760   1.786   1.908   2.007   2.065
 63 A    64 A    65 A    66 A    67 A    68 A    69 A    70 A                  
  2.132   2.157   2.291   2.345   2.421   2.476   2.512   2.524
 71 A    72 A    73 A    74 A    75 A    76 A    77 A    78 A                  
  2.526   2.597   2.634   2.726   2.801   2.876   2.903   3.016
 79 A    80 A    81 A    82 A    83 A    84 A    85 A    86 A                  
  3.037   3.069   3.082   3.156   3.410   3.719   4.261   4.491
 87 A    88 A    89 A    90 A    91 A    92 A    93 A    94 A                  
  4.543   4.588   4.733   4.900
 95 A    96 A    97 A    98 A                                                  
 
 Beta MOs, Unrestricted
 -- Occupied --                  
-15.579 -15.579 -11.285 -11.285 -11.284 -11.284  -1.269  -1.172
  1 A     2 A     3 A     4 A     5 A     6 A     7 A     8 A                  
 -1.035  -0.874  -0.854  -0.694  -0.667  -0.663  -0.590  -0.540
  9 A    10 A    11 A    12 A    13 A    14 A    15 A    16 A                  
 -0.537  -0.384  -0.349  -0.320
 17 A    18 A    19 A    20 A                                                  
 -- Virtual --                   
 -0.064   0.130   0.139   0.262   0.280   0.305   0.317   0.359
 21 A    22 A    23 A    24 A    25 A    26 A    27 A    28 A                  
  0.365   0.481   0.488   0.514   0.630   0.690   0.727   0.744
 29 A    30 A    31 A    32 A    33 A    34 A    35 A    36 A                  
  0.745   0.804   0.828   0.834   0.849   0.888   0.895   0.933
 37 A    38 A    39 A    40 A    41 A    42 A    43 A    44 A                  
  0.980   1.074   1.084   1.087   1.090   1.101   1.110   1.168
 45 A    46 A    47 A    48 A    49 A    50 A    51 A    52 A                  
  1.180   1.215   1.254   1.278   1.356   1.361   1.488   1.511
 53 A    54 A    55 A    56 A    57 A    58 A    59 A    60 A                  
  1.570   1.643   1.742   1.775   1.788   1.794   1.809   1.955
 61 A    62 A    63 A    64 A    65 A    66 A    67 A    68 A                  
  2.037   2.085   2.158   2.171   2.298   2.366   2.427   2.488
 69 A    70 A    71 A    72 A    73 A    74 A    75 A    76 A                  
  2.537   2.542   2.574   2.608   2.676   2.757   2.842   2.880
 77 A    78 A    79 A    80 A    81 A    82 A    83 A    84 A                  
  2.930   3.046   3.063   3.083   3.094   3.186   3.431   3.738
 85 A    86 A    87 A    88 A    89 A    90 A    91 A    92 A                  
  4.300   4.493   4.548   4.616   4.734   4.914
 93 A    94 A    95 A    96 A    97 A    98 A                                  
 

--------------------------------------------------------------------------------
                                   HF Summary                                   
--------------------------------------------------------------------------------
  Energy:                                                 -262.5237875136 a.u.
  Dip. moment [a.u.]:                  [   0.000000,    0.000000,    0.000000]
  Total dipole [Debye]:                                               0.000000
  <r^2> [a.u.]:                        [ 192.128491,  191.225354,   28.092032]
  Total <r^2> [a.u.]:                                               411.445877
--------------------------------------------------------------------------------

--------------------------------------------------------------------------------
                                 MP(2) Summary                                  
--------------------------------------------------------------------------------
  Energy contribution:                                      -0.8686615834 a.u.
  Total energy:                                           -263.3924490971 a.u.
  Dip. moment [a.u.]:                  [  -0.000000,    0.000000,   -0.000000]
  Total dipole [Debye]:                                               0.000000
  <r^2> [a.u.]:                        [ 191.343676,  191.154786,   27.610513]
  Total <r^2> [a.u.]:                                               410.108976
--------------------------------------------------------------------------------
  Starting Davidson ... 
--------------------------------------------------------------------------------
   It NVec Conv  Avg. Norm  Max. Norm  Conv. states           Remark
--------------------------------------------------------------------------------
        20    0  2.254e-01  1.045e+00 15.1722 n n n n n n n n Guess.
    1   40    0  9.948e-02  6.608e-01 14.8975 n n n n n n n n 
    2   60    0  4.883e-02  5.259e-01 14.8805 n n n n n n n n 
    3   80    0  3.218e-02  3.424e-01 14.8794 n n n n n n n n 
    4  100    0  2.970e-02  3.790e-01 14.8793 n n n n n n n n 
    5   40    0  1.402e-02  1.964e-01 14.8793 n n n n n n n n Subspace collapsed.
    6   60    0  6.805e-03  7.290e-02 14.8793 n n n n n n n n 
    7   80    0  1.730e-02  2.486e-01 14.8793 n n n n n n n n 
    8  100    0  7.112e-03  1.074e-01 14.8793 n n n n n n n n 
    9   40    0  3.258e-03  5.145e-02 14.8793 n n n n n n n n Subspace collapsed.
   10   60    0  1.474e-03  2.136e-02 14.8793 n n n n n n n n 
   11   80    1  6.982e-04  9.391e-03 14.8793 y n n n n n n n 
   12  100    1  4.668e-04  5.958e-03 14.8793 y n n n n n n n 
   13   40    2  2.560e-04  3.774e-03 14.8793 y y n n n n n n Subspace collapsed.
   14   60    3  2.320e-04  3.961e-03 14.8793 y y y n n n n n 
   15   80    4  4.152e-04  8.143e-03 14.8793 y y y y n n n n 
   16  100    4  2.481e-03  4.961e-02 14.8793 y y y y n n n n 
   17   40    4  1.931e-03  3.861e-02 14.8793 y y y y n n n n Subspace collapsed.
   18   60    5  1.521e-03  3.042e-02 14.8793 y y y y n n n y 
   19   80    6  2.025e-03  4.050e-02 14.8793 y y y y n n n y 
   20  100    7  3.025e-03  6.050e-02 14.8793 y y y y n n n y 
   21   40    9  1.946e-03  3.892e-02 14.8793 y y y y n n n y Subspace collapsed.
   22   60   10  1.511e-03  3.023e-02 14.8793 y y y y y n n y 
   23   80   12  1.013e-03  2.027e-02 14.8793 y y y y y n y y 
   24   99   13  7.737e-04  1.547e-02 14.8793 y y y y y n y y 
   25  100   13  7.736e-04  1.547e-02 14.8793 y y y y y n y y 
   26   39   15  5.664e-04  1.133e-02 14.8793 y y y y y y y y Subspace collapsed.
   27   58   15  8.452e-04  1.690e-02 14.8793 y y y y y y y y 
   28   76   16  1.033e-03  2.065e-02 14.8793 y y y y y y y y 
   29   94   16  8.993e-04  1.799e-02 14.8793 y y y y y y y y 
   30  100   16  8.871e-04  1.774e-02 14.8793 y y y y y y y y 
   31   37   17  6.802e-04  1.360e-02 14.8793 y y y y y y y y Subspace collapsed.
   32   53   18  5.769e-04  1.154e-02 14.8793 y y y y y y y y 
   33   69   18  3.514e-04  7.028e-03 14.8793 y y y y y y y y 
   34   85   18  3.007e-04  6.013e-03 14.8793 y y y y y y y y 
   35  100   18  4.309e-04  8.617e-03 14.8793 y y y y y y y y 
   36   36   18  2.520e-04  5.039e-03 14.8793 y y y y y y y y Subspace collapsed.
   37   51   18  2.794e-04  5.587e-03 14.8793 y y y y y y y y 
   38   66   18  2.751e-04  5.501e-03 14.8793 y y y y y y y y 
   39   81   18  3.154e-04  6.307e-03 14.8793 y y y y y y y y 
   40   96   18  3.204e-04  6.409e-03 14.8793 y y y y y y y y 
   41  100   18  3.242e-04  6.485e-03 14.8793 y y y y y y y y 
   42   34   18  1.463e-04  2.926e-03 14.8793 y y y y y y y y Subspace collapsed.
   43   48   18  1.045e-04  2.091e-03 14.8793 y y y y y y y y 
   44   61   18  6.768e-05  1.354e-03 14.8793 y y y y y y y y 
   45   74   19  4.907e-05  9.815e-04 14.8793 y y y y y y y y 
   46   78   19  4.977e-05  9.955e-04 14.8793 y y y y y y y y 
   47   82   19  5.180e-05  1.036e-03 14.8793 y y y y y y y y 
   48   82   19  5.180e-05  1.036e-03 14.8793 y y y y y y y y 
   49  100   19  5.825e-05  1.165e-03 14.8793 y y y y y y y y 
   50   20   19  5.825e-05  1.165e-03 14.8793 y y y y y y y y Subspace collapsed.
   51   32   19  3.852e-05  7.704e-04 14.8793 y y y y y y y y 
   52   35   19  3.996e-05  7.992e-04 14.8793 y y y y y y y y 
   53   36   19  4.034e-05  8.069e-04 14.8793 y y y y y y y y 
   54   37   19  4.081e-05  8.161e-04 14.8793 y y y y y y y y 
   55   38   19  4.139e-05  8.278e-04 14.8793 y y y y y y y y 
   56   39   19  4.143e-05  8.286e-04 14.8793 y y y y y y y y 
   57   40   19  4.130e-05  8.259e-04 14.8793 y y y y y y y y 
   58   41   19  4.106e-05  8.213e-04 14.8793 y y y y y y y y 
   59   42   19  4.094e-05  8.188e-04 14.8793 y y y y y y y y 
--------------------------------------------------------------------------------
  Davidson Summary: 
 ------------------------------------------------------------
  State  0: excitation energy =  14.8793 a.u.   (converged)
  State  1: excitation energy =  15.0301 a.u.   (converged)
  State  2: excitation energy =  15.0900 a.u.   (converged)
  State  3: excitation energy =  15.1119 a.u.   (converged)
  State  4: excitation energy =  15.1572 a.u.   (converged)
  State  5: excitation energy =  15.1758 a.u.   (converged)
  State  6: excitation energy =  15.1775 a.u.   (converged)
  State  7: excitation energy =  15.1915 a.u.   (converged)
  State  8: excitation energy =  15.2144 a.u.   (converged)
  State  9: excitation energy =  15.2233 a.u.   (converged)
  State 10: excitation energy =  15.2326 a.u.   (converged)
  State 11: excitation energy =  15.2534 a.u.   (converged)
  State 12: excitation energy =  15.2648 a.u.   (converged)
  State 13: excitation energy =  15.2772 a.u.   (converged)
  State 14: excitation energy =  15.2803 a.u.   (converged)
  State 15: excitation energy =  15.2812 a.u.   (converged)
  State 16: excitation energy =  15.2949 a.u.   (not converged)
  State 17: excitation energy =  15.2952 a.u.   (converged)
  State 18: excitation energy =  15.3028 a.u.   (converged)
  State 19: excitation energy =  15.3031 a.u.   (converged)
 ------------------------------------------------------------


--------------------------------------------------------------------------------
                             Excited State Summary
--------------------------------------------------------------------------------

  Excited state  1 (A)                                             [converged]
  ----------------------------------------------------------------------------
  Term symbol:  2 (-) A                                     R^2 =  5.85736e-13

  Total energy:                                           -248.5131521951 a.u.
  Excitation energy:                                             404.886260 eV

  Osc. strength:                                                      0.021547
  Trans. dip. moment [a.u.]:           [   0.046606,   -0.000000,   -0.000000]
  <i|r^2|0> [a.u.]:                    [  -0.000000,   -0.000000,    0.000000]

  V1^2 = 0.8816, V2^2 = 0.1184

  Important amplitudes:
     core i     occ j      vir a      vir b          v   
    ------------------------------------------------------
     1 (A) B              21 (A) B                -0.9312
     1 (A) B              43 (A) B                 0.0788
    ------------------------------------------------------
  ----------------------------------------------------------------------------


  Excited state  2 (A)                                             [converged]
  ----------------------------------------------------------------------------
  Term symbol:  3 (-) A                                     R^2 =  2.55608e-13

  Total energy:                                           -248.3623092739 a.u.
  Excitation energy:                                             408.990905 eV

  Osc. strength:                                                      0.000000
  Trans. dip. moment [a.u.]:           [   0.000000,   -0.000000,   -0.000000]
  <i|r^2|0> [a.u.]:                    [   0.000000,   -0.000000,    0.000000]

  V1^2 = 0.8590, V2^2 = 0.1410

  Important amplitudes:
     core i     occ j      vir a      vir b          v   
    ------------------------------------------------------
     1 (A) B              23 (A) B                 0.9158
     1 (A) B              50 (A) B                -0.1385
    ------------------------------------------------------
  ----------------------------------------------------------------------------


  Excited state  3 (A)                                             [converged]
  ----------------------------------------------------------------------------
  Term symbol:  4 (-) A                                     R^2 =  5.45836e-13

  Total energy:                                           -248.3024454502 a.u.
  Excitation energy:                                             410.619882 eV

  Osc. strength:                                                      0.000000
  Trans. dip. moment [a.u.]:           [  -0.000000,    0.000000,    0.000000]
  <i|r^2|0> [a.u.]:                    [   0.000000,    0.000000,    0.000000]

  V1^2 = 0.8147, V2^2 = 0.1853

  Important amplitudes:
     core i     occ j      vir a      vir b          v   
    ------------------------------------------------------
     1 (A) B              22 (A) B                 0.8990
     1 (A) B   16 (A) B   22 (A) B   23 (A) B      0.0810
    ------------------------------------------------------
  ----------------------------------------------------------------------------


  Excited state  4 (A)                                             [converged]
  ----------------------------------------------------------------------------
  Term symbol:  5 (-) A                                     R^2 =  3.68773e-13

  Total energy:                                           -248.2805074731 a.u.
  Excitation energy:                                             411.216845 eV

  Osc. strength:                                                      0.000000
  Trans. dip. moment [a.u.]:           [   0.000000,    0.000000,    0.000000]
  <i|r^2|0> [a.u.]:                    [   0.000000,   -0.000000,    0.000000]

  V1^2 = 0.7948, V2^2 = 0.2052

  Important amplitudes:
     core i     occ j      vir a      vir b          v   
    ------------------------------------------------------
     1 (A) A              23 (A) A                 0.8874
     1 (A) A   16 (A) B   23 (A) A   23 (A) B      0.1120
    ------------------------------------------------------
  ----------------------------------------------------------------------------


  Excited state  5 (A)                                             [converged]
  ----------------------------------------------------------------------------
  Term symbol:  6 (-) A                                     R^2 =  4.83068e-13

  Total energy:                                           -248.2352413188 a.u.
  Excitation energy:                                             412.448600 eV

  Osc. strength:                                                      0.000000
  Trans. dip. moment [a.u.]:           [   0.000000,   -0.000000,   -0.000000]
  <i|r^2|0> [a.u.]:                    [   0.000000,   -0.000000,   -0.000000]

  V1^2 = 0.0031, V2^2 = 0.9969

  Important amplitudes:
     core i     occ j      vir a      vir b          v   
    ------------------------------------------------------
     1 (A) B   19 (A) B   21 (A) B   23 (A) B      0.6813
     1 (A) B   19 (A) B   21 (A) B   50 (A) B     -0.1069
    ------------------------------------------------------
  ----------------------------------------------------------------------------


  Excited state  6 (A)                                             [converged]
  ----------------------------------------------------------------------------
  Term symbol:  7 (-) A                                     R^2 =  4.32916e-13

  Total energy:                                           -248.2166219216 a.u.
  Excitation energy:                                             412.955259 eV

  Osc. strength:                                                      0.000000
  Trans. dip. moment [a.u.]:           [   0.000000,   -0.000000,   -0.000000]
  <i|r^2|0> [a.u.]:                    [   0.001632,   -0.000217,   -0.000114]

  V1^2 = 0.0018, V2^2 = 0.9982

  Important amplitudes:
     core i     occ j      vir a      vir b          v   
    ------------------------------------------------------
     1 (A) B   19 (A) B   21 (A) B   22 (A) B     -0.5060
     1 (A) B   21 (A) A   23 (A) A   21 (A) B      0.3373
    ------------------------------------------------------
  ----------------------------------------------------------------------------


  Excited state  7 (A)                                             [converged]
  ----------------------------------------------------------------------------
  Term symbol:  8 (-) A                                     R^2 =  4.46395e-13

  Total energy:                                           -248.2149157617 a.u.
  Excitation energy:                                             413.001686 eV

  Osc. strength:                                                      0.000002
  Trans. dip. moment [a.u.]:           [   0.000000,   -0.000389,    0.000000]
  <i|r^2|0> [a.u.]:                    [   0.000000,   -0.000000,   -0.000000]

  V1^2 = 0.0008, V2^2 = 0.9992

  Important amplitudes:
     core i     occ j      vir a      vir b          v   
    ------------------------------------------------------
     1 (A) B   22 (A) A   23 (A) A   21 (A) B      0.6033
     1 (A) B   21 (A) A   25 (A) A   21 (A) B     -0.2226
    ------------------------------------------------------
  ----------------------------------------------------------------------------


  Excited state  8 (A)                                             [converged]
  ----------------------------------------------------------------------------
  Term symbol:  9 (-) A                                     R^2 =  2.34995e-13

  Total energy:                                           -248.2009551265 a.u.
  Excitation energy:                                             413.381574 eV

  Osc. strength:                                                      0.007858
  Trans. dip. moment [a.u.]:           [   0.000000,   -0.000000,   -0.027855]
  <i|r^2|0> [a.u.]:                    [   0.000000,   -0.000000,    0.000000]

  V1^2 = 0.5728, V2^2 = 0.4272

  Important amplitudes:
     core i     occ j      vir a      vir b          v   
    ------------------------------------------------------
     1 (A) B              29 (A) B                 0.7257
     1 (A) B   20 (A) B   21 (A) B   23 (A) B      0.3708
    ------------------------------------------------------
  ----------------------------------------------------------------------------


  Excited state  9 (A)                                             [converged]
  ----------------------------------------------------------------------------
  Term symbol:  10 (-) A                                    R^2 =  1.22536e-12

  Total energy:                                           -248.1780747993 a.u.
  Excitation energy:                                             414.004180 eV

  Osc. strength:                                                      0.000000
  Trans. dip. moment [a.u.]:           [   0.000000,   -0.000000,    0.000000]
  <i|r^2|0> [a.u.]:                    [   0.000327,    0.000003,    0.000092]

  V1^2 = 0.0003, V2^2 = 0.9997

  Important amplitudes:
     core i     occ j      vir a      vir b          v   
    ------------------------------------------------------
     1 (A) A   19 (A) B   23 (A) A   21 (A) B      0.6639
     1 (A) A   16 (A) B   25 (A) A   21 (A) B     -0.1594
    ------------------------------------------------------
  ----------------------------------------------------------------------------


  Excited state 10 (A)                                             [converged]
  ----------------------------------------------------------------------------
  Term symbol:  11 (-) A                                    R^2 =  5.43189e-13

  Total energy:                                           -248.1691334684 a.u.
  Excitation energy:                                             414.247486 eV

  Osc. strength:                                                      0.016165
  Trans. dip. moment [a.u.]:           [  -0.000000,    0.000000,   -0.039910]
  <i|r^2|0> [a.u.]:                    [   0.000000,   -0.000000,    0.000000]

  V1^2 = 0.7510, V2^2 = 0.2490

  Important amplitudes:
     core i     occ j      vir a      vir b          v   
    ------------------------------------------------------
     1 (A) A              25 (A) A                -0.8544
     1 (A) A   19 (A) B   23 (A) A   23 (A) B      0.1375
    ------------------------------------------------------
  ----------------------------------------------------------------------------


  Excited state 11 (A)                                             [converged]
  ----------------------------------------------------------------------------
  Term symbol:  12 (-) A                                    R^2 =  1.20047e-12

  Total energy:                                           -248.1598265612 a.u.
  Excitation energy:                                             414.500740 eV

  Osc. strength:                                                      0.000000
  Trans. dip. moment [a.u.]:           [  -0.000000,   -0.000000,    0.000000]
  <i|r^2|0> [a.u.]:                    [  -0.003044,    0.000266,    0.000413]

  V1^2 = 0.0027, V2^2 = 0.9973

  Important amplitudes:
     core i     occ j      vir a      vir b          v   
    ------------------------------------------------------
     1 (A) B   18 (A) B   21 (A) B   23 (A) B      0.5942
     1 (A) B   22 (A) A   25 (A) A   21 (A) B     -0.2547
    ------------------------------------------------------
  ----------------------------------------------------------------------------


  Excited state 12 (A)                                             [converged]
  ----------------------------------------------------------------------------
  Term symbol:  13 (-) A                                    R^2 =  2.01163e-12

  Total energy:                                           -248.1390777959 a.u.
  Excitation energy:                                             415.065342 eV

  Osc. strength:                                                      0.001340
  Trans. dip. moment [a.u.]:           [  -0.011481,   -0.000000,    0.000000]
  <i|r^2|0> [a.u.]:                    [   0.000001,   -0.000000,   -0.000000]

  V1^2 = 0.8171, V2^2 = 0.1829

  Important amplitudes:
     core i     occ j      vir a      vir b          v   
    ------------------------------------------------------
     1 (A) B              24 (A) B                -0.7930
     1 (A) B              28 (A) B                 0.3735
    ------------------------------------------------------
  ----------------------------------------------------------------------------


  Excited state 13 (A)                                             [converged]
  ----------------------------------------------------------------------------
  Term symbol:  14 (-) A                                    R^2 =  4.57240e-12

  Total energy:                                           -248.1276898377 a.u.
  Excitation energy:                                             415.375224 eV

  Osc. strength:                                                      0.000020
  Trans. dip. moment [a.u.]:           [   0.001402,   -0.000000,   -0.000000]
  <i|r^2|0> [a.u.]:                    [   0.000001,   -0.000000,   -0.000000]

  V1^2 = 0.8206, V2^2 = 0.1794

  Important amplitudes:
     core i     occ j      vir a      vir b          v   
    ------------------------------------------------------
     1 (A) B              28 (A) B                 0.6066
     1 (A) A              29 (A) A                 0.4712
    ------------------------------------------------------
  ----------------------------------------------------------------------------


  Excited state 14 (A)                                             [converged]
  ----------------------------------------------------------------------------
  Term symbol:  15 (-) A                                    R^2 =  1.31947e-10

  Total energy:                                           -248.1151992331 a.u.
  Excitation energy:                                             415.715111 eV

  Osc. strength:                                                      0.000000
  Trans. dip. moment [a.u.]:           [  -0.000000,    0.000000,   -0.000000]
  <i|r^2|0> [a.u.]:                    [  -0.000000,    0.000000,    0.000000]

  V1^2 = 0.8039, V2^2 = 0.1961

  Important amplitudes:
     core i     occ j      vir a      vir b          v   
    ------------------------------------------------------
     1 (A) B              25 (A) B                 0.8795
     1 (A) B              30 (A) B                -0.1450
    ------------------------------------------------------
  ----------------------------------------------------------------------------


  Excited state 15 (A)                                             [converged]
  ----------------------------------------------------------------------------
  Term symbol:  16 (-) A                                    R^2 =  8.56999e-12

  Total energy:                                           -248.1121727306 a.u.
  Excitation energy:                                             415.797466 eV

  Osc. strength:                                                      0.003931
  Trans. dip. moment [a.u.]:           [  -0.019644,   -0.000000,    0.000000]
  <i|r^2|0> [a.u.]:                    [  -0.000001,    0.000000,    0.000000]

  V1^2 = 0.8025, V2^2 = 0.1975

  Important amplitudes:
     core i     occ j      vir a      vir b          v   
    ------------------------------------------------------
     1 (A) A              24 (A) A                -0.8143
     1 (A) B              28 (A) B                 0.3182
    ------------------------------------------------------
  ----------------------------------------------------------------------------


  Excited state 16 (A)                                             [converged]
  ----------------------------------------------------------------------------
  Term symbol:  17 (-) A                                    R^2 =  9.99915e-11

  Total energy:                                           -248.1112520740 a.u.
  Excitation energy:                                             415.822519 eV

  Osc. strength:                                                      0.006191
  Trans. dip. moment [a.u.]:           [   0.000000,    0.000000,   -0.024652]
  <i|r^2|0> [a.u.]:                    [   0.000000,   -0.000000,   -0.000000]

  V1^2 = 0.1943, V2^2 = 0.8057

  Important amplitudes:
     core i     occ j      vir a      vir b          v   
    ------------------------------------------------------
     1 (A) B   20 (A) B   21 (A) B   23 (A) B     -0.4952
     1 (A) B              29 (A) B                 0.4289
    ------------------------------------------------------
  ----------------------------------------------------------------------------


  Excited state 17 (A)                                         [not converged]
  ----------------------------------------------------------------------------
  Term symbol:  18 (-) A                                    R^2 =  8.18799e-04

  Total energy:                                           -248.0975275510 a.u.
  Excitation energy:                                             416.195982 eV


  V1^2 = 0.0023, V2^2 = 0.9977

  Important amplitudes:
     core i     occ j      vir a      vir b          v   
    ------------------------------------------------------
     1 (A) A   19 (A) B   25 (A) A   21 (A) B     -0.6181
     1 (A) A   16 (A) B   23 (A) A   21 (A) B      0.2791
    ------------------------------------------------------
  ----------------------------------------------------------------------------


  Excited state 18 (A)                                             [converged]
  ----------------------------------------------------------------------------
  Term symbol:  19 (-) A                                    R^2 =  1.77844e-10

  Total energy:                                           -248.0972395008 a.u.
  Excitation energy:                                             416.203820 eV

  Osc. strength:                                                      0.010099
  Trans. dip. moment [a.u.]:           [  -0.031470,   -0.000000,   -0.000000]
  <i|r^2|0> [a.u.]:                    [  -0.000001,    0.000000,    0.000000]

  V1^2 = 0.8208, V2^2 = 0.1792

  Important amplitudes:
     core i     occ j      vir a      vir b          v   
    ------------------------------------------------------
     1 (A) A              29 (A) A                -0.7174
     1 (A) B              28 (A) B                 0.4324
    ------------------------------------------------------
  ----------------------------------------------------------------------------


  Excited state 19 (A)                                             [converged]
  ----------------------------------------------------------------------------
  Term symbol:  20 (-) A                                    R^2 =  1.20735e-07

  Total energy:                                           -248.0896801736 a.u.
  Excitation energy:                                             416.409520 eV

  Osc. strength:                                                      0.000000
  Trans. dip. moment [a.u.]:           [  -0.000000,    0.000000,   -0.000000]
  <i|r^2|0> [a.u.]:                    [  -0.000000,    0.000000,    0.000000]

  V1^2 = 0.7896, V2^2 = 0.2104

  Important amplitudes:
     core i     occ j      vir a      vir b          v   
    ------------------------------------------------------
     1 (A) A              26 (A) A                -0.8619
     1 (A) A              30 (A) A                 0.1887
    ------------------------------------------------------
  ----------------------------------------------------------------------------


  Excited state 20 (A)                                             [converged]
  ----------------------------------------------------------------------------
  Term symbol:  21 (-) A                                    R^2 =  2.90827e-07

  Total energy:                                           -248.0893716326 a.u.
  Excitation energy:                                             416.417916 eV

  Osc. strength:                                                      0.000000
  Trans. dip. moment [a.u.]:           [  -0.000000,    0.000000,   -0.000000]
  <i|r^2|0> [a.u.]:                    [  -0.058439,    0.001230,    0.002490]

  V1^2 = 0.8001, V2^2 = 0.1999

  Important amplitudes:
     core i     occ j      vir a      vir b          v   
    ------------------------------------------------------
     1 (A) B              26 (A) B                -0.8746
     1 (A) B              32 (A) B                -0.1118
    ------------------------------------------------------
  ----------------------------------------------------------------------------


--------------------------------------------------------------------------------
  Time of ADC calculation:  CPU 9034.71 s  wall 3329.26 s
================================================================================
 
 --------------------------------------------------------------
 
                    Orbital Energies (a.u.)
 --------------------------------------------------------------
 
 Alpha MOs
 -- Occupied --
-15.614 -15.614 -11.286 -11.286 -11.285 -11.285  -1.322  -1.248
 -1.057  -0.934  -0.887  -0.739  -0.710  -0.683  -0.624  -0.610
 -0.568  -0.554  -0.543  -0.465  -0.388  -0.247
 -- Virtual --
  0.142   0.254   0.269   0.278   0.301   0.313   0.339   0.461
  0.486   0.492   0.618   0.678   0.700   0.729   0.736   0.797
  0.817   0.819   0.828   0.844   0.886   0.893   0.949   1.010
  1.040   1.048   1.073   1.086   1.089   1.104   1.174   1.198
  1.244   1.276   1.342   1.343   1.476   1.479   1.537   1.618
  1.730   1.736   1.754   1.760   1.786   1.908   2.007   2.065
  2.132   2.157   2.291   2.345   2.421   2.476   2.512   2.524
  2.526   2.597   2.634   2.726   2.801   2.876   2.903   3.016
  3.037   3.069   3.082   3.156   3.410   3.719   4.261   4.491
  4.543   4.588   4.733   4.900
 
 Beta MOs
 -- Occupied --
-15.579 -15.579 -11.285 -11.285 -11.284 -11.284  -1.269  -1.172
 -1.035  -0.874  -0.854  -0.694  -0.667  -0.663  -0.590  -0.540
 -0.537  -0.384  -0.349  -0.320
 -- Virtual --
 -0.064   0.130   0.139   0.262   0.280   0.305   0.317   0.359
  0.365   0.481   0.488   0.514   0.630   0.690   0.727   0.744
  0.745   0.804   0.828   0.834   0.849   0.888   0.895   0.933
  0.980   1.074   1.084   1.087   1.090   1.101   1.110   1.168
  1.180   1.215   1.254   1.278   1.356   1.361   1.488   1.511
  1.570   1.643   1.742   1.775   1.788   1.794   1.809   1.955
  2.037   2.085   2.158   2.171   2.298   2.366   2.427   2.488
  2.537   2.542   2.574   2.608   2.676   2.757   2.842   2.880
  2.930   3.046   3.063   3.083   3.094   3.186   3.431   3.738
  4.300   4.493   4.548   4.616   4.734   4.914
 --------------------------------------------------------------
 
          Ground-State Mulliken Net Atomic Charges

     Atom                 Charge (a.u.)    Spin (a.u.)
  --------------------------------------------------------
      1 C                    -0.015912       0.016408
      2 C                    -0.015912       0.016408
      3 N                    -0.434577       0.920516
      4 N                    -0.434577       0.920516
      5 C                    -0.015912       0.016408
      6 C                    -0.015912       0.016408
      7 H                     0.233201       0.023334
      8 H                     0.233201       0.023334
      9 H                     0.233201       0.023334
     10 H                     0.233201       0.023334
  --------------------------------------------------------
  Sum of atomic charges =     0.000000
  Sum of spin   charges =     2.000000

 -----------------------------------------------------------------
                    Cartesian Multipole Moments
 -----------------------------------------------------------------
    Charge (ESU x 10^10)
                 0.0000
    Dipole Moment (Debye)
         X       0.0000      Y       0.0000      Z       0.0000
       Tot       0.0000
    Quadrupole Moments (Debye-Ang)
        XX     -37.3855     XY       0.0000     YY     -26.2312
        XZ       0.0000     YZ       0.0000     ZZ     -37.7847
    Octopole Moments (Debye-Ang^2)
       XXX       0.0000    XXY       0.0000    XYY       0.0000
       YYY       0.0000    XXZ       0.0000    XYZ       0.0000
       YYZ       0.0000    XZZ       0.0000    YZZ       0.0000
       ZZZ       0.0000
    Hexadecapole Moments (Debye-Ang^3)
      XXXX    -273.2599   XXXY       0.0000   XXYY     -65.8318
      XYYY       0.0000   YYYY    -221.0693   XXXZ       0.0000
      XXYZ       0.0000   XYYZ       0.0000   YYYZ       0.0000
      XXZZ     -51.3925   XYZZ       0.0000   YYZZ     -55.7131
      XZZZ       0.0000   YZZZ       0.0000   ZZZZ     -38.3423
 -----------------------------------------------------------------
Archival summary:
1\1\tp-linux1\SP\HF\6-31G*\244(3)\thomas\ThuJan2613:14:032017ThuJan2613:14:032017\0\\#,HF,6-31G*,\\0,3\N\C,1,1.34606\H,2,1.0834,1,116.808\C,1,1.34606,2,115.185,3,-180,0\H,4,1.0834,1,116.808,2,-180,0\C,2,1.39225,1,122.408,3,-180,0\H,6,1.0834,2,120.785,1,-180,0\N,6,1.34606,2,122.408,1,0,0\C,8,1.34606,6,115.185,2,0,0\H,9,1.0834,8,116.808,6,-180,0\\HF=-262.523788\\@

 Total job time:  3334.54s(wall), 9058.46s(cpu) 
 Thu Jan 26 13:14:03 2017

        *************************************************************
        *                                                           *
        *  Thank you very much for using Q-Chem.  Have a nice day.  *
        *                                                           *
        *************************************************************


0 sent ACK to 0 
now end server 0 ... 
cleanup process ... done
remove work dirs /scratch/qchem/qchem24875.0 -- /scratch/qchem/qchem24875.0
rm -rf /scratch/qchem/qchem24875.0
rm -rf /scratch/qchem/qchem24875
