
Running Job 1 of 1 cvs-adc-gs.inp
qchem cvs-adc-gs.inp_12669.0 /scratch/qchem/qchem12669/ 1
/mnt/software/qchem/bin/mpi/mpirun_qchem -machinefile /mnt/software/qchem/bin/mpi/machines -np 1 /mnt/software/qchem/exe/qcprog.exe cvs-adc-gs.inp_12669.0 /scratch/qchem/qchem12669/

Process 0 of 1 is on tp-linux1 - thread support 0
initial socket setup ...start
initial socket setup ...done 
now start server 0 ... 

cmd = ssh tp-linux1 /mnt/software/qchem/bin/get_hostid 1778473344 > /scratch/qchem/qchem12669/lic.dat
                  Welcome to Q-Chem
     A Quantum Leap Into The Future Of Chemistry


 Q-Chem 4.3, Q-Chem, Inc., Pleasanton, CA (2015)

 Y. Shao,  Z. Gan,  E. Epifanovsky,  A. T. B. Gilbert,  M. Wormit,  
 J. Kussmann,  A. W. Lange,  A. Behn,  J. Deng,  X. Feng,  D. Ghosh,  
 M. Goldey,  P. R. Horn,  L. D. Jacobson,  I. Kaliman,  R. Z. Khaliullin,  
 T. Kus,  A. Landau,  J. Liu,  E. I. Proynov,  Y. M. Rhee,  R. M. Richard,  
 M. A. Rohrdanz,  R. P. Steele,  E. J. Sundstrom,  H. L. Woodcock III,  
 P. M. Zimmerman,  D. Zuev,  B. Albrecht,  E. Alguire,  B. Austin,  
 S. A. Baeppler,  G. J. O. Beran,  Y. A. Bernard,  E. Berquist,  
 K. Brandhorst,  K. B. Bravaya,  S. T. Brown,  D. Casanova,  C.-M. Chang,  
 Y. Chen,  S. H. Chien,  K. D. Closser,  D. L. Crittenden,  M. Diedenhofen,  
 R. A. DiStasio Jr.,  H. Do,  A. D. Dutoi,  R. G. Edgar,  P.-T. Fang,  
 S. Fatehi,  Q. Feng,  L. Fusti-Molnar,  A. Ghysels,  
 A. Golubeva-Zadorozhnaya,  J. Gomes,  A. Gunina,  M. W. D. Hanson-Heine,  
 P. H. P. Harbach,  A. W. Hauser,  E. G. Hohenstein,  Z. C. Holden,  K. Hui,  
 T.-C. Jagau,  H. Ji,  B. Kaduk,  K. Khistyaev,  Jaehoon Kim,  Jihan Kim,  
 R. A. King,  P. Klunzinger,  D. Kosenkov,  T. Kowalczyk,  C. M. Krauter,  
 K. U. Lao,  A. Laurent,  K. V. Lawler,  S. Lehtola,  S. V. Levchenko,  
 C. Y. Lin,  Y.-S. Lin,  F. Liu,  E. Livshits,  R. C. Lochan,  A. Luenser,  
 P. Manohar,  S. F. Manzer,  S.-P. Mao,  N. Mardirossian,  A. V. Marenich,  
 L. A. Martinez-Martinez,  S. A. Maurer,  N. J. Mayhall,  K. Nanda,  
 C. M. Oana,  R. Olivares-Amaya,  D. P. O'Neill,  J. A. Parkhill,  
 T. M. Perrine,  R. Peverati,  P. A. Pieniazek,  F. Plasser,  A. Prociuk,  
 D. R. Rehn,  E. Rosta,  N. J. Russ,  N. Sergueev,  S. M. Sharada,  
 S. Sharma,  D. W. Small,  A. Sodt,  T. Stauch,  T. Stein,  D. Stuck,  
 Y.-C. Su,  A. J. W. Thom,  T. Tsuchimochi,  L. Vogt,  O. Vydrov,  T. Wang,  
 M. A. Watson,  J. Wenzel,  A. White,  C. F. Williams,  V. Vanovschi,  
 S. Yeganeh,  S. R. Yost,  Z.-Q. You,  I. Y. Zhang,  X. Zhang,  Y. Zhao,  
 B. R. Brooks,  G. K. L. Chan,  D. M. Chipman,  C. J. Cramer,  
 W. A. Goddard III,  M. S. Gordon,  W. J. Hehre,  A. Klamt,  
 H. F. Schaefer III,  M. W. Schmidt,  C. D. Sherrill,  D. G. Truhlar,  
 A. Warshel,  X. Xu,  A. Aspuru-Guzik,  R. Baer,  A. T. Bell,  N. A. Besley,  
 J.-D. Chai,  A. Dreuw,  B. D. Dunietz,  T. R. Furlani,  S. R. Gwaltney,  
 C.-P. Hsu,  Y. Jung,  J. Kong,  D. S. Lambrecht,  W. Liang,  C. Ochsenfeld,  
 V. A. Rassolov,  L. V. Slipchenko,  J. E. Subotnik,  T. Van Voorhis,  
 J. M. Herbert,  A. I. Krylov,  P. M. W. Gill,  M. Head-Gordon

 Contributors to earlier versions of Q-Chem not listed above: 
 R. D. Adamson,  J. Baker,  E. F. C. Byrd,  A. K. Chakraborty,  C.-L. Cheng,  
 H. Dachsel,  R. J. Doerksen,  G. Hawkins,  A. Heyden,  S. Hirata,  
 G. Kedziora,  F. J. Keil,  C. Kelley,  P. P. Korambath,  W. Kurlancheek,  
 A. M. Lee,  M. S. Lee,  D. Liotard,  I. Lotan,  P. E. Maslen,  N. Nair,  
 D. Neuhauser,  R. Olson,  B. Peters,  J. Ritchie,  N. E. Schultz,  
 N. Shenvi,  A. C. Simmonett,  K. S. Thanthiriwatte,  Q. Wu,  W. Zhang

 Please cite Q-Chem as follows:
 Y. Shao et al., Mol. Phys. 113, 184-215 (2015)
 DOI: 10.1080/00268976.2014.952696

 Q-Chem 4.3.0 for Intel X86 Linux

 Parts of Q-Chem use Armadillo 5.200.1 (Boston Tea Smuggler).
 http://arma.sourceforge.net/

 Q-Chem begins on Wed Mar  1 15:31:27 2017  

Host: 
0

     Scratch files written to /scratch/qchem/qchem12669//
 Nov1815 1189b_ 19540  19532 5443   
 Parallel job on  1  processors
Processing $rem in /mnt/software/qchem/config/preferences.
 MEM_TOTAL  2000 

Checking the input file for inconsistencies... 	...done.

--------------------------------------------------------------
User input:
--------------------------------------------------------------
$comment
job3 - cvs-adc(2)-x calculation with mom to prevent collapse to ground state
$end

$molecule
0 1
C    -0.696126    -1.136419     0.000000
C     0.696126    -1.136419     0.000000
N    -1.417532     0.000000     0.000000
N     1.417532     0.000000     0.000000
C     0.696126     1.136419     0.000000
C    -0.696126     1.136419     0.000000
H     1.250625     2.067160     0.000000
H    -1.250625     2.067160     0.000000
H     1.250625    -2.067160     0.000000
H    -1.250625    -2.067160     0.000000
$end

$rem
mem_total 3000
mem_static 1500
sym_ignore true
method cvs-adc(2)-x
basis 6-311+G*
ee_singlets 30
cc_rest_occ 1                  !only excitations from the 1st orbital (N 1s)
unrestricted  true
max_scf_cycles 200
$end

--------------------------------------------------------------
 ----------------------------------------------------------------
             Standard Nuclear Orientation (Angstroms)
    I     Atom           X                Y                Z
 ----------------------------------------------------------------
    1      C      -0.6961260000    -1.1364190000     0.0000000000
    2      C       0.6961260000    -1.1364190000     0.0000000000
    3      N      -1.4175320000     0.0000000000     0.0000000000
    4      N       1.4175320000     0.0000000000     0.0000000000
    5      C       0.6961260000     1.1364190000     0.0000000000
    6      C      -0.6961260000     1.1364190000     0.0000000000
    7      H       1.2506250000     2.0671600000     0.0000000000
    8      H      -1.2506250000     2.0671600000     0.0000000000
    9      H       1.2506250000    -2.0671600000     0.0000000000
   10      H      -1.2506250000    -2.0671600000     0.0000000000
 ----------------------------------------------------------------
 Nuclear Repulsion Energy =   207.9974042823 hartrees
 There are       21 alpha and       21 beta electrons
 Requested basis set is 6-311+G(d)
 There are 48 shells and 144 basis functions

 Total QAlloc Memory Limit   3000 MB
 Mega-Array Size      1467 MB
 MEM_STATIC part      1500 MB

                       Distance Matrix (Angstroms)
             C (  1)   C (  2)   N (  3)   N (  4)   C (  5)   C (  6)
   C (  2)  1.392252
   N (  3)  1.346059  2.399791
   N (  4)  2.399791  1.346059  2.835064
   C (  5)  2.665363  2.272838  2.399791  1.346059
   C (  6)  2.272838  2.665363  1.346059  2.399791  1.392252
   H (  7)  3.748701  3.251213  3.375235  2.073887  1.083396  2.157804
   H (  8)  3.251213  3.748701  2.073887  3.375235  2.157804  1.083396
   H (  9)  2.157804  1.083396  3.375235  2.073887  3.251213  3.748701
   H ( 10)  1.083396  2.157804  2.073887  3.375235  3.748701  3.251213
             H (  7)   H (  8)   H (  9)
   H (  8)  2.501250
   H (  9)  4.134320  4.832065
   H ( 10)  4.832065  4.134320  2.501250
 
 tim1(1): 
  0.000000000000000E+000
 tim1(2): 
  0.000000000000000E+000
 A cutoff of  1.0D-11 yielded   1146 shell pairs
 There are     10569 function pairs (     11484 Cartesian)
 
 -------------------------------------------------------
 OpenMP Integral Computing Module                       
 Release: version 1.0, May 2013, Q-Chem Inc. Pittsburgh 
 -------------------------------------------------------
 Integral Job Info:
 Integral job number is                      11
 Integral operator is                         1
 short-range coefficients                     0
 long-range coefficients              100000000
 Omega coefficients                           0
 if combine SR and LR in K                    0
 Integral screening is                        0
 Integral computing path is                   2
 max size of driver memory is            800000
 size of driver memory is                593474
 size of scratch memory is              2260544
 max col of scratch BK array               1296
 max len of scratch array in speh3          155
 max len of scratch index in speh4           18
 max int batch size is                      520
 min int batch size is                       52
 fixed nKL is                                52
 max L of basis functions is                  2
 order of int derivative is                   0
 number of shells is                         48
 number of basis is                         150
 number of cartesian basis is               150
 number of contracted shell pairs          1146
 number of primitive shell pairs           3470
 maxK2 (contraction) of shell pair           36
 max number of K2 of shell pair               1
 max number of CS2 of shell pair            173
 max number of PS2 of shell pair            648
 mem total for path MDJ                   29946
 -------------------------------------------------------
 Smallest overlap matrix eigenvalue = 4.10E-05

 Scale SEOQF with 1.000000e-01/1.000000e-01/1.000000e-01

 Standard Electronic Orientation quadrupole field applied
 Nucleus-field energy     =     0.0000000051 hartrees
 Guess from superposition of atomic densities
 Warning:  Energy on first SCF cycle will be non-variational
 An unrestricted Hartree-Fock SCF calculation will be
 performed using Pulay DIIS extrapolation
 SCF converges when DIIS error is below 1.0E-08
 using 4 threads for integral computing 
 ---------------------------------------
  Cycle       Energy         DIIS Error
 ---------------------------------------
    1    -264.9303542342      6.12E-02
    2    -262.6621313493      4.45E-03
    3    -262.7247826900      1.74E-03
    4    -262.7320281473      7.73E-04
    5    -262.7337672294      1.39E-04
    6    -262.7338516358      4.74E-05
    7    -262.7338673613      1.82E-05
    8    -262.7338696939      3.16E-06
    9    -262.7338697740      6.29E-07
   10    -262.7338697770      1.18E-07
   11    -262.7338697770      2.30E-08
   12    -262.7338697770      3.88E-09 Convergence criterion met
 ---------------------------------------
 <S^2> = 0.0000
 SCF time:  CPU 19.38 s  wall 6.04 s
 SCF   energy in the final basis set = -262.7338697770
 Total energy in the final basis set = -262.7338697770
================================================================================
|                                                                              |
|                                 A D C  M A N                                 |
|                                                                              |
 ------------------------------------------------------------------------------ 
|                                                                              |
| Components:                                                                  |
|                                                                              |
| - libvmm - 1.2-release                                                       |
|   Authors:                                                                   |
|   Evgeny Epifanovsky, Ilya Kaliman                                           |
|                                                                              |
| - libtensor - 2.4-trunk                                                      |
|   Authors:                                                                   |
|   Evgeny Epifanovsky, Michael Wormit, Dmitry Zuev, Sam Manzer                |
|                                                                              |
| - libwfa - 1.1-beta                                                          |
|   Authors:                                                                   |
|   Felix Plasser, Stefanie Baeppler, Benjamin Thomitzni, Michael Wormit       |
|                                                                              |
| - libadc - 1.0-beta                                                          |
|   Authors:                                                                   |
|   Michael Wormit, Philipp H. P. Harbach, Caroline Krauter, Dirk Rehn,        |
|   Matthias Schneider, Jan Wenzel                                             |
|                                                                              |
| - adcman - 2.4-beta                                                          |
|   Authors:                                                                   |
|   Michael Wormit, Philipp H. P. Harbach, Caroline Krauter, Dirk Rehn,        |
|   Jan Wenzel, Andreas Dreuw                                                  |
|                                                                              |
| Authors of earlier versions of ADCMAN:                                       |
| Andreas Dreuw, Jan Hendrik Starcke, Dirk Rehn, Michael Wormit                |
|                                                                              |
================================================================================

 
 Alpha MOs, Unrestricted
 -- Occupied --                  
-15.601 -15.601 -11.292 -11.292 -11.291 -11.291  -1.309  -1.220
  1 A     2 A     3 A     4 A     5 A     6 A     7 A     8 A                  
 -1.059  -0.909  -0.890  -0.731  -0.706  -0.682  -0.617  -0.574
  9 A    10 A    11 A    12 A    13 A    14 A    15 A    16 A                  
 -0.554  -0.504  -0.435  -0.419  -0.363
 17 A    18 A    19 A    20 A    21 A                                          
 -- Virtual --                   
  0.064   0.064   0.074   0.084   0.099   0.100   0.112   0.119
 22 A    23 A    24 A    25 A    26 A    27 A    28 A    29 A                  
  0.128   0.141   0.142   0.146   0.147   0.186   0.187   0.204
 30 A    31 A    32 A    33 A    34 A    35 A    36 A    37 A                  
  0.206   0.252   0.272   0.284   0.302   0.305   0.311   0.311
 38 A    39 A    40 A    41 A    42 A    43 A    44 A    45 A                  
  0.323   0.335   0.349   0.365   0.369   0.413   0.414   0.417
 46 A    47 A    48 A    49 A    50 A    51 A    52 A    53 A                  
  0.461   0.517   0.532   0.611   0.662   0.684   0.699   0.724
 54 A    55 A    56 A    57 A    58 A    59 A    60 A    61 A                  
  0.734   0.735   0.742   0.787   0.795   0.836   0.910   0.930
 62 A    63 A    64 A    65 A    66 A    67 A    68 A    69 A                  
  0.930   0.968   0.969   0.973   1.009   1.041   1.061   1.078
 70 A    71 A    72 A    73 A    74 A    75 A    76 A    77 A                  
  1.101   1.143   1.150   1.185   1.187   1.196   1.298   1.299
 78 A    79 A    80 A    81 A    82 A    83 A    84 A    85 A                  
  1.313   1.391   1.460   1.544   1.584   1.629   1.645   1.711
 86 A    87 A    88 A    89 A    90 A    91 A    92 A    93 A                  
  1.806   1.860   1.866   1.910   2.008   2.113   2.114   2.143
 94 A    95 A    96 A    97 A    98 A    99 A   100 A   101 A                  
  2.221   2.293   2.416   2.531   2.578   2.584   2.628   2.637
102 A   103 A   104 A   105 A   106 A   107 A   108 A   109 A                  
  2.662   2.699   2.791   2.946   2.990   3.106   3.135   3.137
110 A   111 A   112 A   113 A   114 A   115 A   116 A   117 A                  
  3.155   3.173   3.222   3.270   3.324   3.347   3.603   3.632
118 A   119 A   120 A   121 A   122 A   123 A   124 A   125 A                  
  3.763   3.809   3.838   3.861   3.865   4.324   4.335   4.344
126 A   127 A   128 A   129 A   130 A   131 A   132 A   133 A                  
  4.412   4.697   5.036   5.258   5.794  24.709  24.834  25.144
134 A   135 A   136 A   137 A   138 A   139 A   140 A   141 A                  
 25.160  36.887  37.060
142 A   143 A   144 A                                                          
 
 Beta MOs, Unrestricted
 -- Occupied --                  
-15.601 -15.601 -11.292 -11.292 -11.291 -11.291  -1.309  -1.220
  1 A     2 A     3 A     4 A     5 A     6 A     7 A     8 A                  
 -1.059  -0.909  -0.890  -0.731  -0.706  -0.682  -0.617  -0.574
  9 A    10 A    11 A    12 A    13 A    14 A    15 A    16 A                  
 -0.554  -0.504  -0.435  -0.419  -0.363
 17 A    18 A    19 A    20 A    21 A                                          
 -- Virtual --                   
  0.064   0.064   0.074   0.084   0.099   0.100   0.112   0.119
 22 A    23 A    24 A    25 A    26 A    27 A    28 A    29 A                  
  0.128   0.141   0.142   0.146   0.147   0.186   0.187   0.204
 30 A    31 A    32 A    33 A    34 A    35 A    36 A    37 A                  
  0.206   0.252   0.272   0.284   0.302   0.305   0.311   0.311
 38 A    39 A    40 A    41 A    42 A    43 A    44 A    45 A                  
  0.323   0.335   0.349   0.365   0.369   0.413   0.414   0.417
 46 A    47 A    48 A    49 A    50 A    51 A    52 A    53 A                  
  0.461   0.517   0.532   0.611   0.662   0.684   0.699   0.724
 54 A    55 A    56 A    57 A    58 A    59 A    60 A    61 A                  
  0.734   0.735   0.742   0.787   0.795   0.836   0.910   0.930
 62 A    63 A    64 A    65 A    66 A    67 A    68 A    69 A                  
  0.930   0.968   0.969   0.973   1.009   1.041   1.061   1.078
 70 A    71 A    72 A    73 A    74 A    75 A    76 A    77 A                  
  1.101   1.143   1.150   1.185   1.187   1.196   1.298   1.299
 78 A    79 A    80 A    81 A    82 A    83 A    84 A    85 A                  
  1.313   1.391   1.460   1.544   1.584   1.629   1.645   1.711
 86 A    87 A    88 A    89 A    90 A    91 A    92 A    93 A                  
  1.806   1.860   1.866   1.910   2.008   2.113   2.114   2.143
 94 A    95 A    96 A    97 A    98 A    99 A   100 A   101 A                  
  2.221   2.293   2.416   2.531   2.578   2.584   2.628   2.637
102 A   103 A   104 A   105 A   106 A   107 A   108 A   109 A                  
  2.662   2.699   2.791   2.946   2.990   3.106   3.135   3.137
110 A   111 A   112 A   113 A   114 A   115 A   116 A   117 A                  
  3.155   3.173   3.222   3.270   3.324   3.347   3.603   3.632
118 A   119 A   120 A   121 A   122 A   123 A   124 A   125 A                  
  3.763   3.809   3.838   3.861   3.865   4.324   4.335   4.344
126 A   127 A   128 A   129 A   130 A   131 A   132 A   133 A                  
  4.412   4.697   5.036   5.258   5.794  24.709  24.834  25.144
134 A   135 A   136 A   137 A   138 A   139 A   140 A   141 A                  
 25.160  36.887  37.060
142 A   143 A   144 A                                                          
 

--------------------------------------------------------------------------------
                                   HF Summary                                   
--------------------------------------------------------------------------------
  Energy:                                                 -262.7338697770 a.u.
  Dip. moment [a.u.]:                  [   0.000000,    0.000000,    0.000000]
  Total dipole [Debye]:                                               0.000000
  <r^2> [a.u.]:                        [ 195.776563,  191.322291,   27.703587]
  Total <r^2> [a.u.]:                                               414.802441
--------------------------------------------------------------------------------

--------------------------------------------------------------------------------
                                 MP(2) Summary                                  
--------------------------------------------------------------------------------
  Energy contribution:                                      -0.9557358580 a.u.
  Total energy:                                           -263.6896056350 a.u.
  Dip. moment [a.u.]:                  [   0.000000,    0.000000,    0.000000]
  Total dipole [Debye]:                                               0.000000
  <r^2> [a.u.]:                        [ 195.501667,  191.320068,   27.351727]
  Total <r^2> [a.u.]:                                               414.173462
--------------------------------------------------------------------------------
  Starting Davidson ... 
--------------------------------------------------------------------------------
   It NVec Conv  Avg. Norm  Max. Norm  Conv. states           Remark
--------------------------------------------------------------------------------
        30    0  2.332e-01  1.332e+00 15.3395 n n n n n n n n Guess.
    1   60    0  7.036e-02  5.453e-01 14.9973 n n n n n n n n 
    2   90    0  1.526e-02  1.592e-01 14.9722 n n n n n n n n 
    3  120    0  9.608e-03  9.159e-02 14.9685 n n n n n n n n 
    4  150    0  6.382e-03  8.858e-02 14.9674 n n n n n n n n 
    5   60    0  4.023e-03  6.967e-02 14.9673 n n n n n n n n Subspace collapsed.
    6   90    0  5.899e-03  1.236e-01 14.9673 n n n n n n n n 
    7  120    0  6.367e-03  1.234e-01 14.9673 n n n n n n n n 
    8  150    0  3.334e-03  5.683e-02 14.9673 n n n n n n n n 
    9   60    0  1.299e-03  2.355e-02 14.9673 n n n n n n n n Subspace collapsed.
   10   90    0  1.952e-03  4.071e-02 14.9673 n n n n n n n n 
   11  120    0  5.202e-04  9.562e-03 14.9673 n n n n n n n n 
   12  150    0  4.326e-03  1.293e-01 14.9673 n n n n n n n n 
   13   60    0  2.265e-03  6.778e-02 14.9673 n n n n n n n n Subspace collapsed.
   14   90    1  1.956e-03  5.847e-02 14.9673 n n y n n n n n 
   15  120    3  1.268e-03  3.796e-02 14.9673 y n y y n n n n 
   16  150    4  5.313e-04  1.583e-02 14.9673 y y y y n n n n 
   17   60    4  2.082e-04  6.156e-03 14.9673 y y y y n n n n Subspace collapsed.
   18   90    4  1.443e-04  4.167e-03 14.9673 y y y y n n n n 
   19  120    4  6.719e-05  1.811e-03 14.9673 y y y y n n n n 
   20  150    4  6.489e-05  1.705e-03 14.9673 y y y y n n n n 
   21   60    7  2.776e-05  6.945e-04 14.9673 y y y y n n n n Subspace collapsed.
   22   90    8  2.404e-05  6.025e-04 14.9673 y y y y n n n n 
   23  120   10  1.373e-05  3.259e-04 14.9673 y y y y n y y n 
   24  150   12  1.143e-05  2.600e-04 14.9673 y y y y n y y y 
   25   60   18  6.552e-06  1.688e-04 14.9673 y y y y y y y y Subspace collapsed.
   26   90   15  6.992e-06  1.934e-04 14.9673 y y y y y y y y 
   27  120   20  5.989e-06  1.759e-04 14.9673 y y y y y y y y 
   28  150   20  7.747e-06  2.277e-04 14.9673 y y y y y y y y 
   29   60   27  3.415e-06  1.013e-04 14.9673 y y y y y y y y Subspace collapsed.
   30   89   24  2.720e-06  7.972e-05 14.9673 y y y y y y y y 
   31  117   27  1.779e-06  5.271e-05 14.9673 y y y y y y y y 
   32  145   27  1.936e-06  5.743e-05 14.9673 y y y y y y y y 
   33  150   27  1.932e-06  5.743e-05 14.9673 y y y y y y y y 
   34   58   28  1.485e-06  4.441e-05 14.9673 y y y y y y y y Subspace collapsed.
   35   85   28  1.685e-06  5.047e-05 14.9673 y y y y y y y y 
   36  112   28  1.452e-06  4.353e-05 14.9673 y y y y y y y y 
   37  138   28  1.921e-06  5.762e-05 14.9673 y y y y y y y y 
   38  150   27  3.227e-03  9.680e-02 14.9673 y y y y y y y y 
   39   56   28  1.082e-03  3.245e-02 14.9673 y y y y y y y y Subspace collapsed.
   40   82   28  1.085e-03  3.255e-02 14.9673 y y y y y y y y 
   41  108   28  5.448e-04  1.635e-02 14.9673 y y y y y y y y 
   42  134   28  4.623e-04  1.387e-02 14.9673 y y y y y y y y 
   43  150   28  4.607e-04  1.382e-02 14.9673 y y y y y y y y 
   44   54   28  2.511e-04  7.533e-03 14.9673 y y y y y y y y Subspace collapsed.
   45   77   28  2.340e-04  7.019e-03 14.9673 y y y y y y y y 
   46  100   28  1.490e-04  4.469e-03 14.9673 y y y y y y y y 
   47  119   29  1.192e-04  3.577e-03 14.9673 y y y y y y y y 
   48  137   29  3.979e-05  1.194e-03 14.9673 y y y y y y y y 
   49  150   29  2.397e-05  7.190e-04 14.9673 y y y y y y y y 
   50   46   29  2.066e-05  6.198e-04 14.9673 y y y y y y y y Subspace collapsed.
   51   61   29  2.686e-05  8.058e-04 14.9673 y y y y y y y y 
   52   76   29  1.727e-05  5.181e-04 14.9673 y y y y y y y y 
   53   89   29  1.255e-05  3.766e-04 14.9673 y y y y y y y y 
   54  102   29  6.343e-06  1.903e-04 14.9673 y y y y y y y y 
   55  106   29  6.353e-06  1.906e-04 14.9673 y y y y y y y y 
   56  116   29  4.917e-06  1.475e-04 14.9673 y y y y y y y y 
   57  125   29  3.783e-06  1.135e-04 14.9673 y y y y y y y y 
   58  126   29  3.781e-06  1.134e-04 14.9673 y y y y y y y y 
   59  127   29  3.783e-06  1.135e-04 14.9673 y y y y y y y y 
--------------------------------------------------------------------------------
  Davidson Summary: 
 ------------------------------------------------------------
  State  0: excitation energy =  14.9673 a.u.   (converged)
  State  1: excitation energy =  14.9942 a.u.   (converged)
  State  2: excitation energy =  15.0475 a.u.   (converged)
  State  3: excitation energy =  15.0512 a.u.   (converged)
  State  4: excitation energy =  15.1223 a.u.   (converged)
  State  5: excitation energy =  15.1236 a.u.   (converged)
  State  6: excitation energy =  15.1482 a.u.   (converged)
  State  7: excitation energy =  15.1483 a.u.   (converged)
  State  8: excitation energy =  15.1630 a.u.   (converged)
  State  9: excitation energy =  15.1639 a.u.   (converged)
  State 10: excitation energy =  15.1640 a.u.   (converged)
  State 11: excitation energy =  15.1647 a.u.   (converged)
  State 12: excitation energy =  15.1675 a.u.   (converged)
  State 13: excitation energy =  15.1685 a.u.   (converged)
  State 14: excitation energy =  15.1689 a.u.   (converged)
  State 15: excitation energy =  15.1764 a.u.   (converged)
  State 16: excitation energy =  15.1823 a.u.   (converged)
  State 17: excitation energy =  15.1824 a.u.   (converged)
  State 18: excitation energy =  15.1954 a.u.   (converged)
  State 19: excitation energy =  15.1971 a.u.   (converged)
  State 20: excitation energy =  15.2054 a.u.   (converged)
  State 21: excitation energy =  15.2056 a.u.   (converged)
  State 22: excitation energy =  15.2220 a.u.   (converged)
  State 23: excitation energy =  15.2222 a.u.   (converged)
  State 24: excitation energy =  15.2261 a.u.   (converged)
  State 25: excitation energy =  15.2264 a.u.   (converged)
  State 26: excitation energy =  15.2278 a.u.   (converged)
  State 27: excitation energy =  15.2289 a.u.   (converged)
  State 28: excitation energy =  15.2533 a.u.   (converged)
  State 29: excitation energy =  15.2536 a.u.   (not converged)
 ------------------------------------------------------------


--------------------------------------------------------------------------------
                             Excited State Summary
--------------------------------------------------------------------------------

  Excited state  1 (A)                                             [converged]
  ----------------------------------------------------------------------------
  Term symbol:  2 (-) A                                     R^2 =  1.29801e-12

  Total energy:                                           -248.7223236458 a.u.
  Excitation energy:                                             407.280456 eV

  Osc. strength:                                                      0.000000
  Trans. dip. moment [a.u.]:           [   0.000000,    0.000000,   -0.000000]
  <i|r^2|0> [a.u.]:                    [   0.000000,    0.000000,    0.000000]

  V1^2 = 0.8628, V2^2 = 0.1372

  Important amplitudes:
     core i     occ j       vir a       vir b          v   
    --------------------------------------------------------
     1 (A) A               23 (A) A                  0.5947
     1 (A) B               23 (A) B                 -0.5947
    --------------------------------------------------------
  ----------------------------------------------------------------------------


  Excited state  2 (A)                                             [converged]
  ----------------------------------------------------------------------------
  Term symbol:  3 (-) A                                     R^2 =  1.20406e-12

  Total energy:                                           -248.6953654811 a.u.
  Excitation energy:                                             408.014025 eV

  Osc. strength:                                                      0.000000
  Trans. dip. moment [a.u.]:           [   0.000000,    0.000000,   -0.000000]
  <i|r^2|0> [a.u.]:                    [  -0.000000,   -0.000000,   -0.000000]

  V1^2 = 0.8616, V2^2 = 0.1384

  Important amplitudes:
     core i     occ j       vir a       vir b          v   
    --------------------------------------------------------
     1 (A) B               23 (A) B                 -0.5994
     1 (A) A               23 (A) A                 -0.5994
    --------------------------------------------------------
  ----------------------------------------------------------------------------


  Excited state  3 (A)                                             [converged]
  ----------------------------------------------------------------------------
  Term symbol:  4 (-) A                                     R^2 =  5.62433e-12

  Total energy:                                           -248.6420944088 a.u.
  Excitation energy:                                             409.463605 eV

  Osc. strength:                                                      0.000000
  Trans. dip. moment [a.u.]:           [  -0.000000,    0.000000,    0.000000]
  <i|r^2|0> [a.u.]:                    [  -0.000000,    0.000000,   -0.000000]

  V1^2 = 0.8070, V2^2 = 0.1930

  Important amplitudes:
     core i     occ j       vir a       vir b          v   
    --------------------------------------------------------
     1 (A) B               27 (A) B                  0.5942
     1 (A) A               27 (A) A                  0.5942
    --------------------------------------------------------
  ----------------------------------------------------------------------------


  Excited state  4 (A)                                             [converged]
  ----------------------------------------------------------------------------
  Term symbol:  5 (-) A                                     R^2 =  5.35527e-12

  Total energy:                                           -248.6384205845 a.u.
  Excitation energy:                                             409.563575 eV

  Osc. strength:                                                      0.000000
  Trans. dip. moment [a.u.]:           [   0.000000,   -0.000000,   -0.000000]
  <i|r^2|0> [a.u.]:                    [   0.000000,   -0.000000,   -0.000000]

  V1^2 = 0.8097, V2^2 = 0.1903

  Important amplitudes:
     core i     occ j       vir a       vir b          v   
    --------------------------------------------------------
     1 (A) A               27 (A) A                 -0.5960
     1 (A) B               27 (A) B                  0.5960
    --------------------------------------------------------
  ----------------------------------------------------------------------------


  Excited state  5 (A)                                             [converged]
  ----------------------------------------------------------------------------
  Term symbol:  6 (-) A                                     R^2 =  2.35453e-12

  Total energy:                                           -248.5672857087 a.u.
  Excitation energy:                                             411.499253 eV

  Osc. strength:                                                      0.000000
  Trans. dip. moment [a.u.]:           [   0.000000,   -0.000000,    0.000000]
  <i|r^2|0> [a.u.]:                    [   0.000000,   -0.000000,   -0.000000]

  V1^2 = 0.8279, V2^2 = 0.1721

  Important amplitudes:
     core i     occ j       vir a       vir b          v   
    --------------------------------------------------------
     1 (A) A               22 (A) A                 -0.5859
     1 (A) B               22 (A) B                  0.5859
    --------------------------------------------------------
  ----------------------------------------------------------------------------


  Excited state  6 (A)                                             [converged]
  ----------------------------------------------------------------------------
  Term symbol:  7 (-) A                                     R^2 =  2.30168e-12

  Total energy:                                           -248.5659906927 a.u.
  Excitation energy:                                             411.534492 eV

  Osc. strength:                                                      0.000190
  Trans. dip. moment [a.u.]:           [   0.004336,    0.000000,    0.000000]
  <i|r^2|0> [a.u.]:                    [   0.000000,    0.000000,    0.000000]

  V1^2 = 0.8264, V2^2 = 0.1736

  Important amplitudes:
     core i     occ j       vir a       vir b          v   
    --------------------------------------------------------
     1 (A) B               22 (A) B                 -0.5960
     1 (A) A               22 (A) A                 -0.5960
    --------------------------------------------------------
  ----------------------------------------------------------------------------


  Excited state  7 (A)                                             [converged]
  ----------------------------------------------------------------------------
  Term symbol:  8 (-) A                                     R^2 =  2.62241e-12

  Total energy:                                           -248.5414495064 a.u.
  Excitation energy:                                             412.202292 eV

  Osc. strength:                                                      0.000000
  Trans. dip. moment [a.u.]:           [   0.000000,    0.000000,    0.000000]
  <i|r^2|0> [a.u.]:                    [  -0.000000,   -0.000000,    0.000000]

  V1^2 = 0.8201, V2^2 = 0.1799

  Important amplitudes:
     core i     occ j       vir a       vir b          v   
    --------------------------------------------------------
     1 (A) A               24 (A) A                  0.6232
     1 (A) B               24 (A) B                  0.6232
    --------------------------------------------------------
  ----------------------------------------------------------------------------


  Excited state  8 (A)                                             [converged]
  ----------------------------------------------------------------------------
  Term symbol:  9 (-) A                                     R^2 =  2.54591e-12

  Total energy:                                           -248.5412747240 a.u.
  Excitation energy:                                             412.207048 eV

  Osc. strength:                                                      0.000000
  Trans. dip. moment [a.u.]:           [   0.000000,   -0.000000,    0.000000]
  <i|r^2|0> [a.u.]:                    [   0.000000,    0.000000,    0.000000]

  V1^2 = 0.8203, V2^2 = 0.1797

  Important amplitudes:
     core i     occ j       vir a       vir b          v   
    --------------------------------------------------------
     1 (A) B               24 (A) B                 -0.6234
     1 (A) A               24 (A) A                  0.6234
    --------------------------------------------------------
  ----------------------------------------------------------------------------


  Excited state  9 (A)                                             [converged]
  ----------------------------------------------------------------------------
  Term symbol:  10 (-) A                                    R^2 =  1.49605e-12

  Total energy:                                           -248.5266201000 a.u.
  Excitation energy:                                             412.605820 eV

  Osc. strength:                                                      0.000000
  Trans. dip. moment [a.u.]:           [  -0.000000,   -0.000000,    0.000000]
  <i|r^2|0> [a.u.]:                    [  -0.000000,   -0.000000,   -0.000000]

  V1^2 = 0.7964, V2^2 = 0.2036

  Important amplitudes:
     core i     occ j       vir a       vir b          v   
    --------------------------------------------------------
     1 (A) A               48 (A) A                 -0.3831
     1 (A) B               48 (A) B                  0.3831
    --------------------------------------------------------
  ----------------------------------------------------------------------------


  Excited state 10 (A)                                             [converged]
  ----------------------------------------------------------------------------
  Term symbol:  11 (-) A                                    R^2 =  7.77830e-12

  Total energy:                                           -248.5257319604 a.u.
  Excitation energy:                                             412.629988 eV

  Osc. strength:                                                      0.000000
  Trans. dip. moment [a.u.]:           [   0.000000,   -0.000000,    0.000000]
  <i|r^2|0> [a.u.]:                    [   0.000000,    0.000000,    0.000000]

  V1^2 = 0.8305, V2^2 = 0.1695

  Important amplitudes:
     core i     occ j       vir a       vir b          v   
    --------------------------------------------------------
     1 (A) B               25 (A) B                  0.6253
     1 (A) A               25 (A) A                 -0.6253
    --------------------------------------------------------
  ----------------------------------------------------------------------------


  Excited state 11 (A)                                             [converged]
  ----------------------------------------------------------------------------
  Term symbol:  12 (-) A                                    R^2 =  3.03586e-12

  Total energy:                                           -248.5256087307 a.u.
  Excitation energy:                                             412.633341 eV

  Osc. strength:                                                      0.000000
  Trans. dip. moment [a.u.]:           [  -0.000000,    0.000000,   -0.000000]
  <i|r^2|0> [a.u.]:                    [  -0.000000,   -0.000000,   -0.000000]

  V1^2 = 0.8247, V2^2 = 0.1753

  Important amplitudes:
     core i     occ j       vir a       vir b          v   
    --------------------------------------------------------
     1 (A) B               28 (A) B                 -0.5716
     1 (A) A               28 (A) A                  0.5716
    --------------------------------------------------------
  ----------------------------------------------------------------------------


  Excited state 12 (A)                                             [converged]
  ----------------------------------------------------------------------------
  Term symbol:  13 (-) A                                    R^2 =  7.77214e-12

  Total energy:                                           -248.5248880400 a.u.
  Excitation energy:                                             412.652952 eV

  Osc. strength:                                                      0.000000
  Trans. dip. moment [a.u.]:           [   0.000000,    0.000000,    0.000000]
  <i|r^2|0> [a.u.]:                    [  -0.077963,   -0.002379,   -0.001823]

  V1^2 = 0.8299, V2^2 = 0.1701

  Important amplitudes:
     core i     occ j       vir a       vir b          v   
    --------------------------------------------------------
     1 (A) A               25 (A) A                 -0.6261
     1 (A) B               25 (A) B                 -0.6261
    --------------------------------------------------------
  ----------------------------------------------------------------------------


  Excited state 13 (A)                                             [converged]
  ----------------------------------------------------------------------------
  Term symbol:  14 (-) A                                    R^2 =  3.34986e-12

  Total energy:                                           -248.5220695935 a.u.
  Excitation energy:                                             412.729646 eV

  Osc. strength:                                                      0.000178
  Trans. dip. moment [a.u.]:           [   0.004194,    0.000000,   -0.000000]
  <i|r^2|0> [a.u.]:                    [   0.000000,    0.000000,    0.000000]

  V1^2 = 0.8246, V2^2 = 0.1754

  Important amplitudes:
     core i     occ j       vir a       vir b          v   
    --------------------------------------------------------
     1 (A) A               28 (A) A                  0.5852
     1 (A) B               28 (A) B                  0.5852
    --------------------------------------------------------
  ----------------------------------------------------------------------------


  Excited state 14 (A)                                             [converged]
  ----------------------------------------------------------------------------
  Term symbol:  15 (-) A                                    R^2 =  2.30503e-12

  Total energy:                                           -248.5210630294 a.u.
  Excitation energy:                                             412.757036 eV

  Osc. strength:                                                      0.000000
  Trans. dip. moment [a.u.]:           [  -0.000000,    0.000000,    0.000000]
  <i|r^2|0> [a.u.]:                    [   0.000000,   -0.000000,   -0.000000]

  V1^2 = 0.8260, V2^2 = 0.1740

  Important amplitudes:
     core i     occ j       vir a       vir b          v   
    --------------------------------------------------------
     1 (A) B               29 (A) B                  0.5944
     1 (A) A               29 (A) A                  0.5944
    --------------------------------------------------------
  ----------------------------------------------------------------------------


  Excited state 15 (A)                                             [converged]
  ----------------------------------------------------------------------------
  Term symbol:  16 (-) A                                    R^2 =  2.18253e-12

  Total energy:                                           -248.5207122237 a.u.
  Excitation energy:                                             412.766582 eV

  Osc. strength:                                                      0.000000
  Trans. dip. moment [a.u.]:           [  -0.000000,    0.000000,   -0.000000]
  <i|r^2|0> [a.u.]:                    [  -0.000000,   -0.000000,   -0.000000]

  V1^2 = 0.8264, V2^2 = 0.1736

  Important amplitudes:
     core i     occ j       vir a       vir b          v   
    --------------------------------------------------------
     1 (A) A               29 (A) A                 -0.5966
     1 (A) B               29 (A) B                  0.5966
    --------------------------------------------------------
  ----------------------------------------------------------------------------


  Excited state 16 (A)                                             [converged]
  ----------------------------------------------------------------------------
  Term symbol:  17 (-) A                                    R^2 =  1.66618e-12

  Total energy:                                           -248.5131630850 a.u.
  Excitation energy:                                             412.972004 eV

  Osc. strength:                                                      0.032219
  Trans. dip. moment [a.u.]:           [   0.000000,   -0.000000,   -0.056431]
  <i|r^2|0> [a.u.]:                    [  -0.000000,   -0.000000,   -0.000000]

  V1^2 = 0.7939, V2^2 = 0.2061

  Important amplitudes:
     core i     occ j       vir a       vir b          v   
    --------------------------------------------------------
     1 (A) A               30 (A) A                  0.3942
     1 (A) B               30 (A) B                  0.3942
    --------------------------------------------------------
  ----------------------------------------------------------------------------


  Excited state 17 (A)                                             [converged]
  ----------------------------------------------------------------------------
  Term symbol:  18 (-) A                                    R^2 =  1.54952e-11

  Total energy:                                           -248.5073362476 a.u.
  Excitation energy:                                             413.130561 eV

  Osc. strength:                                                      0.000000
  Trans. dip. moment [a.u.]:           [  -0.000000,    0.000000,   -0.000000]
  <i|r^2|0> [a.u.]:                    [   0.000000,    0.000000,    0.000000]

  V1^2 = 0.8249, V2^2 = 0.1751

  Important amplitudes:
     core i     occ j       vir a       vir b          v   
    --------------------------------------------------------
     1 (A) B               26 (A) B                  0.6221
     1 (A) A               26 (A) A                 -0.6221
    --------------------------------------------------------
  ----------------------------------------------------------------------------


  Excited state 18 (A)                                             [converged]
  ----------------------------------------------------------------------------
  Term symbol:  19 (-) A                                    R^2 =  1.53594e-11

  Total energy:                                           -248.5072115376 a.u.
  Excitation energy:                                             413.133954 eV

  Osc. strength:                                                      0.000671
  Trans. dip. moment [a.u.]:           [  -0.000000,    0.008143,   -0.000000]
  <i|r^2|0> [a.u.]:                    [   0.000000,    0.000000,    0.000000]

  V1^2 = 0.8247, V2^2 = 0.1753

  Important amplitudes:
     core i     occ j       vir a       vir b          v   
    --------------------------------------------------------
     1 (A) A               26 (A) A                  0.6225
     1 (A) B               26 (A) B                  0.6225
    --------------------------------------------------------
  ----------------------------------------------------------------------------


  Excited state 19 (A)                                             [converged]
  ----------------------------------------------------------------------------
  Term symbol:  20 (-) A                                    R^2 =  8.59868e-12

  Total energy:                                           -248.4942394139 a.u.
  Excitation energy:                                             413.486944 eV

  Osc. strength:                                                      0.000000
  Trans. dip. moment [a.u.]:           [   0.000000,    0.000000,    0.000000]
  <i|r^2|0> [a.u.]:                    [  -0.000000,   -0.000000,   -0.000000]

  V1^2 = 0.8273, V2^2 = 0.1727

  Important amplitudes:
     core i     occ j       vir a       vir b          v   
    --------------------------------------------------------
     1 (A) A               31 (A) A                 -0.6080
     1 (A) B               31 (A) B                  0.6080
    --------------------------------------------------------
  ----------------------------------------------------------------------------


  Excited state 20 (A)                                             [converged]
  ----------------------------------------------------------------------------
  Term symbol:  21 (-) A                                    R^2 =  5.30438e-12

  Total energy:                                           -248.4924839779 a.u.
  Excitation energy:                                             413.534712 eV

  Osc. strength:                                                      0.000111
  Trans. dip. moment [a.u.]:           [  -0.003314,   -0.000000,   -0.000000]
  <i|r^2|0> [a.u.]:                    [   0.000000,   -0.000000,   -0.000000]

  V1^2 = 0.8270, V2^2 = 0.1730

  Important amplitudes:
     core i     occ j       vir a       vir b          v   
    --------------------------------------------------------
     1 (A) B               31 (A) B                  0.6053
     1 (A) A               31 (A) A                  0.6053
    --------------------------------------------------------
  ----------------------------------------------------------------------------


  Excited state 21 (A)                                             [converged]
  ----------------------------------------------------------------------------
  Term symbol:  22 (-) A                                    R^2 =  8.46016e-12

  Total energy:                                           -248.4842461663 a.u.
  Excitation energy:                                             413.758874 eV

  Osc. strength:                                                      0.000000
  Trans. dip. moment [a.u.]:           [  -0.000000,   -0.000000,    0.000000]
  <i|r^2|0> [a.u.]:                    [   0.000000,    0.000000,    0.000000]

  V1^2 = 0.8196, V2^2 = 0.1804

  Important amplitudes:
     core i     occ j       vir a       vir b          v   
    --------------------------------------------------------
     1 (A) B               32 (A) B                  0.6378
     1 (A) A               32 (A) A                  0.6378
    --------------------------------------------------------
  ----------------------------------------------------------------------------


  Excited state 22 (A)                                             [converged]
  ----------------------------------------------------------------------------
  Term symbol:  23 (-) A                                    R^2 =  8.53273e-12

  Total energy:                                           -248.4839941031 a.u.
  Excitation energy:                                             413.765733 eV

  Osc. strength:                                                      0.000000
  Trans. dip. moment [a.u.]:           [  -0.000000,   -0.000000,   -0.000000]
  <i|r^2|0> [a.u.]:                    [   0.000000,   -0.000000,   -0.000000]

  V1^2 = 0.8199, V2^2 = 0.1801

  Important amplitudes:
     core i     occ j       vir a       vir b          v   
    --------------------------------------------------------
     1 (A) A               32 (A) A                  0.6380
     1 (A) B               32 (A) B                 -0.6380
    --------------------------------------------------------
  ----------------------------------------------------------------------------


  Excited state 23 (A)                                             [converged]
  ----------------------------------------------------------------------------
  Term symbol:  24 (-) A                                    R^2 =  2.86232e-12

  Total energy:                                           -248.4675766168 a.u.
  Excitation energy:                                             414.212475 eV

  Osc. strength:                                                      0.000000
  Trans. dip. moment [a.u.]:           [   0.000000,    0.000000,    0.000000]
  <i|r^2|0> [a.u.]:                    [  -0.000000,   -0.000000,   -0.000000]

  V1^2 = 0.8082, V2^2 = 0.1918

  Important amplitudes:
     core i     occ j       vir a       vir b          v   
    --------------------------------------------------------
     1 (A) B               30 (A) B                  0.5222
     1 (A) A               30 (A) A                 -0.5222
    --------------------------------------------------------
  ----------------------------------------------------------------------------


  Excited state 24 (A)                                             [converged]
  ----------------------------------------------------------------------------
  Term symbol:  25 (-) A                                    R^2 =  2.78576e-12

  Total energy:                                           -248.4673606910 a.u.
  Excitation energy:                                             414.218351 eV

  Osc. strength:                                                      0.003688
  Trans. dip. moment [a.u.]:           [   0.000000,    0.000000,   -0.019065]
  <i|r^2|0> [a.u.]:                    [   0.000000,    0.000000,    0.000000]

  V1^2 = 0.8015, V2^2 = 0.1985

  Important amplitudes:
     core i     occ j       vir a       vir b          v   
    --------------------------------------------------------
     1 (A) A               30 (A) A                 -0.4958
     1 (A) B               30 (A) B                 -0.4958
    --------------------------------------------------------
  ----------------------------------------------------------------------------


  Excited state 25 (A)                                             [converged]
  ----------------------------------------------------------------------------
  Term symbol:  26 (-) A                                    R^2 =  2.12925e-10

  Total energy:                                           -248.4635102645 a.u.
  Excitation energy:                                             414.323126 eV

  Osc. strength:                                                      0.000000
  Trans. dip. moment [a.u.]:           [   0.000000,    0.000000,    0.000000]
  <i|r^2|0> [a.u.]:                    [   0.000000,   -0.000000,   -0.000000]

  V1^2 = 0.8271, V2^2 = 0.1729

  Important amplitudes:
     core i     occ j       vir a       vir b          v   
    --------------------------------------------------------
     1 (A) B               33 (A) B                  0.6043
     1 (A) A               33 (A) A                 -0.6043
    --------------------------------------------------------
  ----------------------------------------------------------------------------


  Excited state 26 (A)                                             [converged]
  ----------------------------------------------------------------------------
  Term symbol:  27 (-) A                                    R^2 =  1.26486e-08

  Total energy:                                           -248.4632435425 a.u.
  Excitation energy:                                             414.330384 eV

  Osc. strength:                                                      0.000000
  Trans. dip. moment [a.u.]:           [  -0.000000,   -0.000000,    0.000000]
  <i|r^2|0> [a.u.]:                    [   0.000000,    0.000000,    0.000000]

  V1^2 = 0.8272, V2^2 = 0.1728

  Important amplitudes:
     core i     occ j       vir a       vir b          v   
    --------------------------------------------------------
     1 (A) B               34 (A) B                 -0.6207
     1 (A) A               34 (A) A                  0.6207
    --------------------------------------------------------
  ----------------------------------------------------------------------------


  Excited state 27 (A)                                             [converged]
  ----------------------------------------------------------------------------
  Term symbol:  28 (-) A                                    R^2 =  6.29045e-12

  Total energy:                                           -248.4617909081 a.u.
  Excitation energy:                                             414.369912 eV

  Osc. strength:                                                      0.000000
  Trans. dip. moment [a.u.]:           [  -0.000000,   -0.000000,   -0.000000]
  <i|r^2|0> [a.u.]:                    [  -0.000000,   -0.000000,   -0.000000]

  V1^2 = 0.8271, V2^2 = 0.1729

  Important amplitudes:
     core i     occ j       vir a       vir b          v   
    --------------------------------------------------------
     1 (A) A               34 (A) A                 -0.6261
     1 (A) B               34 (A) B                 -0.6261
    --------------------------------------------------------
  ----------------------------------------------------------------------------


  Excited state 28 (A)                                             [converged]
  ----------------------------------------------------------------------------
  Term symbol:  29 (-) A                                    R^2 =  9.90269e-12

  Total energy:                                           -248.4607089643 a.u.
  Excitation energy:                                             414.399354 eV

  Osc. strength:                                                      0.000000
  Trans. dip. moment [a.u.]:           [   0.000000,    0.000000,   -0.000000]
  <i|r^2|0> [a.u.]:                    [  -0.014339,   -0.004076,   -0.004526]

  V1^2 = 0.8270, V2^2 = 0.1730

  Important amplitudes:
     core i     occ j       vir a       vir b          v   
    --------------------------------------------------------
     1 (A) A               33 (A) A                  0.6121
     1 (A) B               33 (A) B                  0.6121
    --------------------------------------------------------
  ----------------------------------------------------------------------------


  Excited state 29 (A)                                             [converged]
  ----------------------------------------------------------------------------
  Term symbol:  30 (-) A                                    R^2 =  1.33875e-09

  Total energy:                                           -248.4362935318 a.u.
  Excitation energy:                                             415.063731 eV

  Osc. strength:                                                      0.000000
  Trans. dip. moment [a.u.]:           [   0.000000,    0.000000,    0.000000]
  <i|r^2|0> [a.u.]:                    [   0.000000,   -0.000000,   -0.000000]

  V1^2 = 0.8203, V2^2 = 0.1797

  Important amplitudes:
     core i     occ j       vir a       vir b          v   
    --------------------------------------------------------
     1 (A) B               37 (A) B                 -0.6244
     1 (A) A               37 (A) A                 -0.6244
    --------------------------------------------------------
  ----------------------------------------------------------------------------


  Excited state 30 (A)                                         [not converged]
  ----------------------------------------------------------------------------
  Term symbol:  31 (-) A                                    R^2 =  1.13476e-04

  Total energy:                                           -248.4359805707 a.u.
  Excitation energy:                                             415.072247 eV


  V1^2 = 0.8209, V2^2 = 0.1791

  Important amplitudes:
     core i     occ j       vir a       vir b          v   
    --------------------------------------------------------
     1 (A) A               37 (A) A                 -0.6249
     1 (A) B               37 (A) B                  0.6249
    --------------------------------------------------------
  ----------------------------------------------------------------------------


--------------------------------------------------------------------------------
  Time of ADC calculation:  CPU 63095.03 s  wall 29273.76 s
================================================================================
 
 --------------------------------------------------------------
 
                    Orbital Energies (a.u.)
 --------------------------------------------------------------
 
 Alpha MOs
 -- Occupied --
-15.601 -15.601 -11.292 -11.292 -11.291 -11.291  -1.309  -1.220
 -1.059  -0.909  -0.890  -0.731  -0.706  -0.682  -0.617  -0.574
 -0.554  -0.504  -0.435  -0.419  -0.363
 -- Virtual --
  0.064   0.064   0.074   0.084   0.099   0.100   0.112   0.119
  0.128   0.141   0.142   0.146   0.147   0.186   0.187   0.204
  0.206   0.252   0.272   0.284   0.302   0.305   0.311   0.311
  0.323   0.335   0.349   0.365   0.369   0.413   0.414   0.417
  0.461   0.517   0.532   0.611   0.662   0.684   0.699   0.724
  0.734   0.735   0.742   0.787   0.795   0.836   0.910   0.930
  0.930   0.968   0.969   0.973   1.009   1.041   1.061   1.078
  1.101   1.143   1.150   1.185   1.187   1.196   1.298   1.299
  1.313   1.391   1.460   1.544   1.584   1.629   1.645   1.711
  1.806   1.860   1.866   1.910   2.008   2.113   2.114   2.143
  2.221   2.293   2.416   2.531   2.578   2.584   2.628   2.637
  2.662   2.699   2.791   2.946   2.990   3.106   3.135   3.137
  3.155   3.173   3.222   3.270   3.324   3.347   3.603   3.632
  3.763   3.809   3.838   3.861   3.865   4.324   4.335   4.344
  4.412   4.697   5.036   5.258   5.794  24.709  24.834  25.144
 25.160  36.887  37.060
 
 Beta MOs
 -- Occupied --
-15.601 -15.601 -11.292 -11.292 -11.291 -11.291  -1.309  -1.220
 -1.059  -0.909  -0.890  -0.731  -0.706  -0.682  -0.617  -0.574
 -0.554  -0.504  -0.435  -0.419  -0.363
 -- Virtual --
  0.064   0.064   0.074   0.084   0.099   0.100   0.112   0.119
  0.128   0.141   0.142   0.146   0.147   0.186   0.187   0.204
  0.206   0.252   0.272   0.284   0.302   0.305   0.311   0.311
  0.323   0.335   0.349   0.365   0.369   0.413   0.414   0.417
  0.461   0.517   0.532   0.611   0.662   0.684   0.699   0.724
  0.734   0.735   0.742   0.787   0.795   0.836   0.910   0.930
  0.930   0.968   0.969   0.973   1.009   1.041   1.061   1.078
  1.101   1.143   1.150   1.185   1.187   1.196   1.298   1.299
  1.313   1.391   1.460   1.544   1.584   1.629   1.645   1.711
  1.806   1.860   1.866   1.910   2.008   2.113   2.114   2.143
  2.221   2.293   2.416   2.531   2.578   2.584   2.628   2.637
  2.662   2.699   2.791   2.946   2.990   3.106   3.135   3.137
  3.155   3.173   3.222   3.270   3.324   3.347   3.603   3.632
  3.763   3.809   3.838   3.861   3.865   4.324   4.335   4.344
  4.412   4.697   5.036   5.258   5.794  24.709  24.834  25.144
 25.160  36.887  37.060
 --------------------------------------------------------------
 
          Ground-State Mulliken Net Atomic Charges

     Atom                 Charge (a.u.)    Spin (a.u.)
  --------------------------------------------------------
      1 C                    -0.228329       0.000000
      2 C                    -0.228329       0.000000
      3 N                    -0.049019       0.000000
      4 N                    -0.049019       0.000000
      5 C                    -0.228329       0.000000
      6 C                    -0.228329       0.000000
      7 H                     0.252838       0.000000
      8 H                     0.252838       0.000000
      9 H                     0.252838       0.000000
     10 H                     0.252838       0.000000
  --------------------------------------------------------
  Sum of atomic charges =     0.000000
  Sum of spin   charges =     0.000000

 -----------------------------------------------------------------
                    Cartesian Multipole Moments
 -----------------------------------------------------------------
    Charge (ESU x 10^10)
                 0.0000
    Dipole Moment (Debye)
         X       0.0000      Y       0.0000      Z       0.0000
       Tot       0.0000
    Quadrupole Moments (Debye-Ang)
        XX     -42.2923     XY       0.0000     YY     -26.3616
        XZ       0.0000     YZ       0.0000     ZZ     -37.2623
    Octopole Moments (Debye-Ang^2)
       XXX       0.0000    XXY       0.0000    XYY       0.0000
       YYY       0.0000    XXZ       0.0000    XYZ       0.0000
       YYZ       0.0000    XZZ       0.0000    YZZ       0.0000
       ZZZ       0.0000
    Hexadecapole Moments (Debye-Ang^3)
      XXXX    -309.3974   XXXY       0.0000   XXYY     -69.8506
      XYYY       0.0000   YYYY    -228.4874   XXXZ       0.0000
      XXYZ       0.0000   XYYZ       0.0000   YYYZ       0.0000
      XXZZ     -53.5224   XYZZ       0.0000   YYZZ     -56.2077
      XZZZ       0.0000   YZZZ       0.0000   ZZZZ     -41.4437
 -----------------------------------------------------------------
Archival summary:
1\1\tp-linux1\SP\HF\BasisUnspecified\244\thomas\WedMar123:39:342017WedMar123:39:342017\0\\#,HF,BasisUnspecified,\\0,1\N\C,1,1.34606\H,2,1.0834,1,116.808\C,1,1.34606,2,115.185,3,-180,0\H,4,1.0834,1,116.808,2,-180,0\C,2,1.39225,1,122.408,3,-180,0\H,6,1.0834,2,120.785,1,-180,0\N,6,1.34606,2,122.408,1,0,0\C,8,1.34606,6,115.185,2,0,0\H,9,1.0834,8,116.808,6,-180,0\\HF=-262.73387\\@

 Total job time:  29286.98s(wall), 63122.47s(cpu) 
 Wed Mar  1 23:39:34 2017

        *************************************************************
        *                                                           *
        *  Thank you very much for using Q-Chem.  Have a nice day.  *
        *                                                           *
        *************************************************************


0 sent ACK to 0 
now end server 0 ... 
cleanup process ... done
