You are running Q-Chem version: 4.3

#
# job setting
#
local host:  tp-linux1
current dir: /home/thomas/CODE_displace_coords/qchem
input file:  cvs-adc-mom-s2.inp
output file: 
nprocs     : 1
nthreads   : 8
#
# qchem installation setting
#
QC:          /mnt/software/qchem
QCAUX:       /mnt/software/qchem/qcaux
QCPROG:      /mnt/software/qchem/exe/qcprog.exe
QCPROG_S:    /mnt/software/qchem/exe/qcprog.exe_s
PARALLEL:    -DPARALLEL
QCMPI:       mpich
#
# qchem directory setting
#
qcrun:       qchem3330
QCSCRATCH:   /scratch/qchem
QCLOCALSCR:  
QCTMPDIR:    /scratch/qchem
QCFILEPREF:  /scratch/qchem/qchem3330
QCSAVEDIR:   
workdirs:    /scratch/qchem/qchem3330
workdir0:    /scratch/qchem/qchem3330
partmpdirs =  
#
# parallel setting
#
QCRSH:           ssh
QCMPI:           mpich
QCMPIRUN:        /mnt/software/qchem/bin/mpi/mpirun_qchem
QCMACHINEFILE:   /mnt/software/qchem/bin/mpi/machines
127.0.1.1 32

#
# env setting
#
exported envs:   QC QCAUX QCSCRATCH QCRUNNAME QCFILEPREF QCPROG QCPROG_S GUIFILE

Running Job 1 of 3 cvs-adc-mom-s2.inp
qchem cvs-adc-mom-s2.inp_3330.0 /scratch/qchem/qchem3330/ 1
/mnt/software/qchem/bin/mpi/mpirun_qchem -machinefile /mnt/software/qchem/bin/mpi/machines -np 1 /mnt/software/qchem/exe/qcprog.exe cvs-adc-mom-s2.inp_3330.0 /scratch/qchem/qchem3330/

Process 0 of 1 is on tp-linux1 - thread support 0
initial socket setup ...start
initial socket setup ...done 
now start server 0 ... 

cmd = ssh tp-linux1 /mnt/software/qchem/bin/get_hostid 298322265 > /scratch/qchem/qchem3330/lic.dat
                  Welcome to Q-Chem
     A Quantum Leap Into The Future Of Chemistry


 Q-Chem 4.3, Q-Chem, Inc., Pleasanton, CA (2015)

 Y. Shao,  Z. Gan,  E. Epifanovsky,  A. T. B. Gilbert,  M. Wormit,  
 J. Kussmann,  A. W. Lange,  A. Behn,  J. Deng,  X. Feng,  D. Ghosh,  
 M. Goldey,  P. R. Horn,  L. D. Jacobson,  I. Kaliman,  R. Z. Khaliullin,  
 T. Kus,  A. Landau,  J. Liu,  E. I. Proynov,  Y. M. Rhee,  R. M. Richard,  
 M. A. Rohrdanz,  R. P. Steele,  E. J. Sundstrom,  H. L. Woodcock III,  
 P. M. Zimmerman,  D. Zuev,  B. Albrecht,  E. Alguire,  B. Austin,  
 S. A. Baeppler,  G. J. O. Beran,  Y. A. Bernard,  E. Berquist,  
 K. Brandhorst,  K. B. Bravaya,  S. T. Brown,  D. Casanova,  C.-M. Chang,  
 Y. Chen,  S. H. Chien,  K. D. Closser,  D. L. Crittenden,  M. Diedenhofen,  
 R. A. DiStasio Jr.,  H. Do,  A. D. Dutoi,  R. G. Edgar,  P.-T. Fang,  
 S. Fatehi,  Q. Feng,  L. Fusti-Molnar,  A. Ghysels,  
 A. Golubeva-Zadorozhnaya,  J. Gomes,  A. Gunina,  M. W. D. Hanson-Heine,  
 P. H. P. Harbach,  A. W. Hauser,  E. G. Hohenstein,  Z. C. Holden,  K. Hui,  
 T.-C. Jagau,  H. Ji,  B. Kaduk,  K. Khistyaev,  Jaehoon Kim,  Jihan Kim,  
 R. A. King,  P. Klunzinger,  D. Kosenkov,  T. Kowalczyk,  C. M. Krauter,  
 K. U. Lao,  A. Laurent,  K. V. Lawler,  S. Lehtola,  S. V. Levchenko,  
 C. Y. Lin,  Y.-S. Lin,  F. Liu,  E. Livshits,  R. C. Lochan,  A. Luenser,  
 P. Manohar,  S. F. Manzer,  S.-P. Mao,  N. Mardirossian,  A. V. Marenich,  
 L. A. Martinez-Martinez,  S. A. Maurer,  N. J. Mayhall,  K. Nanda,  
 C. M. Oana,  R. Olivares-Amaya,  D. P. O'Neill,  J. A. Parkhill,  
 T. M. Perrine,  R. Peverati,  P. A. Pieniazek,  F. Plasser,  A. Prociuk,  
 D. R. Rehn,  E. Rosta,  N. J. Russ,  N. Sergueev,  S. M. Sharada,  
 S. Sharma,  D. W. Small,  A. Sodt,  T. Stauch,  T. Stein,  D. Stuck,  
 Y.-C. Su,  A. J. W. Thom,  T. Tsuchimochi,  L. Vogt,  O. Vydrov,  T. Wang,  
 M. A. Watson,  J. Wenzel,  A. White,  C. F. Williams,  V. Vanovschi,  
 S. Yeganeh,  S. R. Yost,  Z.-Q. You,  I. Y. Zhang,  X. Zhang,  Y. Zhao,  
 B. R. Brooks,  G. K. L. Chan,  D. M. Chipman,  C. J. Cramer,  
 W. A. Goddard III,  M. S. Gordon,  W. J. Hehre,  A. Klamt,  
 H. F. Schaefer III,  M. W. Schmidt,  C. D. Sherrill,  D. G. Truhlar,  
 A. Warshel,  X. Xu,  A. Aspuru-Guzik,  R. Baer,  A. T. Bell,  N. A. Besley,  
 J.-D. Chai,  A. Dreuw,  B. D. Dunietz,  T. R. Furlani,  S. R. Gwaltney,  
 C.-P. Hsu,  Y. Jung,  J. Kong,  D. S. Lambrecht,  W. Liang,  C. Ochsenfeld,  
 V. A. Rassolov,  L. V. Slipchenko,  J. E. Subotnik,  T. Van Voorhis,  
 J. M. Herbert,  A. I. Krylov,  P. M. W. Gill,  M. Head-Gordon

 Contributors to earlier versions of Q-Chem not listed above: 
 R. D. Adamson,  J. Baker,  E. F. C. Byrd,  A. K. Chakraborty,  C.-L. Cheng,  
 H. Dachsel,  R. J. Doerksen,  G. Hawkins,  A. Heyden,  S. Hirata,  
 G. Kedziora,  F. J. Keil,  C. Kelley,  P. P. Korambath,  W. Kurlancheek,  
 A. M. Lee,  M. S. Lee,  D. Liotard,  I. Lotan,  P. E. Maslen,  N. Nair,  
 D. Neuhauser,  R. Olson,  B. Peters,  J. Ritchie,  N. E. Schultz,  
 N. Shenvi,  A. C. Simmonett,  K. S. Thanthiriwatte,  Q. Wu,  W. Zhang

 Please cite Q-Chem as follows:
 Y. Shao et al., Mol. Phys. 113, 184-215 (2015)
 DOI: 10.1080/00268976.2014.952696

 Q-Chem 4.3.0 for Intel X86 Linux

 Parts of Q-Chem use Armadillo 5.200.1 (Boston Tea Smuggler).
 http://arma.sourceforge.net/

 Q-Chem begins on Mon Jan 30 14:01:17 2017  

Host: 
0

     Scratch files written to /scratch/qchem/qchem3330//
 Nov1815 1189b_ 19540  19532 5443   
 Parallel job on  1  processors
Processing $rem in /mnt/software/qchem/config/preferences.
 MEM_TOTAL  2000 

Checking the input file for inconsistencies... 	...done.

--------------------------------------------------------------
User input:
--------------------------------------------------------------
$comment
XAS calculation for the 2b valence excited for water using cvs-adc(2)-x + 6-311+G* basis set
job 1 - determination of HF orbitals
$end

$molecule
0 1
C    -0.696126    -1.136419     0.000000
C     0.696126    -1.136419     0.000000
N    -1.417532     0.000000     0.000000
N     1.417532     0.000000     0.000000
C     0.696126     1.136419     0.000000
C    -0.696126     1.136419     0.000000
H     1.250625     2.067160     0.000000
H    -1.250625     2.067160     0.000000
H     1.250625    -2.067160     0.000000
H    -1.250625    -2.067160     0.000000
$end

$rem
jobtype      sp
sym_ignore true
exchange     hf
basis        6-31G*
unrestricted true
$end

--------------------------------------------------------------
 ----------------------------------------------------------------
             Standard Nuclear Orientation (Angstroms)
    I     Atom           X                Y                Z
 ----------------------------------------------------------------
    1      C      -0.6961260000    -1.1364190000     0.0000000000
    2      C       0.6961260000    -1.1364190000     0.0000000000
    3      N      -1.4175320000     0.0000000000     0.0000000000
    4      N       1.4175320000     0.0000000000     0.0000000000
    5      C       0.6961260000     1.1364190000     0.0000000000
    6      C      -0.6961260000     1.1364190000     0.0000000000
    7      H       1.2506250000     2.0671600000     0.0000000000
    8      H      -1.2506250000     2.0671600000     0.0000000000
    9      H       1.2506250000    -2.0671600000     0.0000000000
   10      H      -1.2506250000    -2.0671600000     0.0000000000
 ----------------------------------------------------------------
 Nuclear Repulsion Energy =   207.9974042823 hartrees
 There are       21 alpha and       21 beta electrons
 Requested basis set is 6-31G(d)
 There are 32 shells and 98 basis functions

 Total QAlloc Memory Limit   2000 MB
 Mega-Array Size        61 MB
 MEM_STATIC part        62 MB

                       Distance Matrix (Angstroms)
             C (  1)   C (  2)   N (  3)   N (  4)   C (  5)   C (  6)
   C (  2)  1.392252
   N (  3)  1.346059  2.399791
   N (  4)  2.399791  1.346059  2.835064
   C (  5)  2.665363  2.272838  2.399791  1.346059
   C (  6)  2.272838  2.665363  1.346059  2.399791  1.392252
   H (  7)  3.748701  3.251213  3.375235  2.073887  1.083396  2.157804
   H (  8)  3.251213  3.748701  2.073887  3.375235  2.157804  1.083396
   H (  9)  2.157804  1.083396  3.375235  2.073887  3.251213  3.748701
   H ( 10)  1.083396  2.157804  2.073887  3.375235  3.748701  3.251213
             H (  7)   H (  8)   H (  9)
   H (  8)  2.501250
   H (  9)  4.134320  4.832065
   H ( 10)  4.832065  4.134320  2.501250
 
 tim1(1): 
  0.000000000000000E+000
 tim1(2): 
  0.000000000000000E+000
 A cutoff of  1.0D-08 yielded    495 shell pairs
 There are      4944 function pairs
 
 -------------------------------------------------------
 OpenMP Integral Computing Module                       
 Release: version 1.0, May 2013, Q-Chem Inc. Pittsburgh 
 -------------------------------------------------------
 Integral Job Info:
 Integral job number is                      11
 Integral operator is                         1
 short-range coefficients                     0
 long-range coefficients              100000000
 Omega coefficients                           0
 if combine SR and LR in K                    0
 Integral screening is                        0
 Integral computing path is                   2
 max size of driver memory is            800000
 size of driver memory is                593474
 size of scratch memory is              2260544
 max col of scratch BK array               1296
 max len of scratch array in speh3          155
 max len of scratch index in speh4           18
 max int batch size is                      520
 min int batch size is                       52
 fixed nKL is                                52
 max L of basis functions is                  2
 order of int derivative is                   0
 number of shells is                         32
 number of basis is                          98
 number of cartesian basis is                98
 number of contracted shell pairs           495
 number of primitive shell pairs           2101
 maxK2 (contraction) of shell pair           36
 max number of K2 of shell pair               1
 max number of CS2 of shell pair             52
 max number of PS2 of shell pair            312
 mem total for path MDJ                   27448
 -------------------------------------------------------
 Smallest overlap matrix eigenvalue = 1.40E-03

 Scale SEOQF with 1.000000e-01/1.000000e-01/1.000000e+00

 Standard Electronic Orientation quadrupole field applied
 Nucleus-field energy     =     0.0000000051 hartrees
 Guess from superposition of atomic densities
 Warning:  Energy on first SCF cycle will be non-variational
 An unrestricted Hartree-Fock SCF calculation will be
 performed using Pulay DIIS extrapolation
 SCF converges when DIIS error is below 1.0E-05
 using 8 threads for integral computing 
 ---------------------------------------
  Cycle       Energy         DIIS Error
 ---------------------------------------
    1    -264.8351357250      8.71E-02
    2    -262.6061638531      6.65E-03
    3    -262.6694980805      2.72E-03
    4    -262.6774662255      1.10E-03
    5    -262.6791954361      2.02E-04
    6    -262.6792802909      7.07E-05
    7    -262.6792978056      2.50E-05
    8    -262.6792999555      3.90E-06 Convergence criterion met
 ---------------------------------------
 <S^2> = 0.0000
 SCF time:  CPU 10.12 s  wall 2.30 s
 SCF   energy in the final basis set = -262.6792999555
 Total energy in the final basis set = -262.6792999555
 
 --------------------------------------------------------------
 
                    Orbital Energies (a.u.)
 --------------------------------------------------------------
 
 Alpha MOs
 -- Occupied --
-15.600 -15.600 -11.287 -11.287 -11.286 -11.286  -1.301  -1.213
 -1.052  -0.902  -0.883  -0.724  -0.698  -0.677  -0.610  -0.568
 -0.547  -0.496  -0.428  -0.411  -0.358
 -- Virtual --
  0.091   0.127   0.256   0.278   0.303   0.316   0.336   0.345
  0.467   0.493   0.499   0.616   0.683   0.708   0.724   0.733
  0.792   0.817   0.823   0.840   0.852   0.881   0.907   0.959
  1.066   1.067   1.073   1.073   1.086   1.106   1.138   1.174
  1.208   1.242   1.270   1.345   1.354   1.480   1.492   1.549
  1.628   1.735   1.748   1.771   1.782   1.783   1.930   2.021
  2.072   2.148   2.162   2.291   2.350   2.416   2.473   2.520
  2.531   2.549   2.594   2.654   2.737   2.823   2.874   2.915
  3.036   3.045   3.072   3.087   3.180   3.426   3.732   4.284
  4.486   4.541   4.602   4.729   4.907
 
 Beta MOs
 -- Occupied --
-15.600 -15.600 -11.287 -11.287 -11.286 -11.286  -1.301  -1.213
 -1.052  -0.902  -0.883  -0.724  -0.698  -0.677  -0.610  -0.568
 -0.547  -0.496  -0.428  -0.411  -0.358
 -- Virtual --
  0.091   0.127   0.256   0.278   0.303   0.316   0.336   0.345
  0.467   0.493   0.499   0.616   0.683   0.708   0.724   0.733
  0.792   0.817   0.823   0.840   0.852   0.881   0.907   0.959
  1.066   1.067   1.073   1.073   1.086   1.106   1.138   1.174
  1.208   1.242   1.270   1.345   1.354   1.480   1.492   1.549
  1.628   1.735   1.748   1.771   1.782   1.783   1.930   2.021
  2.072   2.148   2.162   2.291   2.350   2.416   2.473   2.520
  2.531   2.549   2.594   2.654   2.737   2.823   2.874   2.915
  3.036   3.045   3.072   3.087   3.180   3.426   3.732   4.284
  4.486   4.541   4.602   4.729   4.907
 --------------------------------------------------------------
 
          Ground-State Mulliken Net Atomic Charges

     Atom                 Charge (a.u.)    Spin (a.u.)
  --------------------------------------------------------
      1 C                     0.014393       0.000000
      2 C                     0.014393       0.000000
      3 N                    -0.464739       0.000000
      4 N                    -0.464739       0.000000
      5 C                     0.014393       0.000000
      6 C                     0.014393       0.000000
      7 H                     0.217976       0.000000
      8 H                     0.217976       0.000000
      9 H                     0.217976       0.000000
     10 H                     0.217976       0.000000
  --------------------------------------------------------
  Sum of atomic charges =     0.000000
  Sum of spin   charges =     0.000000

 -----------------------------------------------------------------
                    Cartesian Multipole Moments
 -----------------------------------------------------------------
    Charge (ESU x 10^10)
                 0.0000
    Dipole Moment (Debye)
         X       0.0000      Y       0.0000      Z       0.0000
       Tot       0.0000
    Quadrupole Moments (Debye-Ang)
        XX     -41.5289     XY       0.0000     YY     -26.0155
        XZ       0.0000     YZ       0.0000     ZZ     -36.3330
    Octopole Moments (Debye-Ang^2)
       XXX       0.0000    XXY       0.0000    XYY       0.0000
       YYY       0.0000    XXZ       0.0000    XYZ       0.0000
       YYZ       0.0000    XZZ       0.0000    YZZ       0.0000
       ZZZ       0.0000
    Hexadecapole Moments (Debye-Ang^3)
      XXXX    -298.5971   XXXY       0.0000   XXYY     -68.8930
      XYYY       0.0000   YYYY    -224.0918   XXXZ       0.0000
      XXYZ       0.0000   XYYZ       0.0000   YYYZ       0.0000
      XXZZ     -50.6969   XYZZ       0.0000   YYZZ     -53.2567
      XZZZ       0.0000   YZZZ       0.0000   ZZZZ     -36.1049
 -----------------------------------------------------------------
Archival summary:
1\1\tp-linux1\SP\HF\6-31G*\244\thomas\MonJan3014:01:202017MonJan3014:01:202017\0\\#,HF,6-31G*,\\0,1\N\C,1,1.34606\H,2,1.0834,1,116.808\C,1,1.34606,2,115.185,3,-180,0\H,4,1.0834,1,116.808,2,-180,0\C,2,1.39225,1,122.408,3,-180,0\H,6,1.0834,2,120.785,1,-180,0\N,6,1.34606,2,122.408,1,0,0\C,8,1.34606,6,115.185,2,0,0\H,9,1.0834,8,116.808,6,-180,0\\HF=-262.6793\\@

 Total job time:  3.14s(wall), 12.03s(cpu) 
 Mon Jan 30 14:01:20 2017

        *************************************************************
        *                                                           *
        *  Thank you very much for using Q-Chem.  Have a nice day.  *
        *                                                           *
        *************************************************************


0 sent ACK to 0 
now end server 0 ... 
cleanup process ... done

Running Job 2 of 3 cvs-adc-mom-s2.inp
qchem cvs-adc-mom-s2.inp_3330.1 /scratch/qchem/qchem3330/ 1
/mnt/software/qchem/bin/mpi/mpirun_qchem -machinefile /mnt/software/qchem/bin/mpi/machines -np 1 /mnt/software/qchem/exe/qcprog.exe cvs-adc-mom-s2.inp_3330.1 /scratch/qchem/qchem3330/

Process 0 of 1 is on tp-linux1 - thread support 0
initial socket setup ...start
initial socket setup ...done 
now start server 0 ... 

cmd = ssh tp-linux1 /mnt/software/qchem/bin/get_hostid 1707791650 > /scratch/qchem/qchem3330/lic.dat
                  Welcome to Q-Chem
     A Quantum Leap Into The Future Of Chemistry


 Q-Chem 4.3, Q-Chem, Inc., Pleasanton, CA (2015)

 Y. Shao,  Z. Gan,  E. Epifanovsky,  A. T. B. Gilbert,  M. Wormit,  
 J. Kussmann,  A. W. Lange,  A. Behn,  J. Deng,  X. Feng,  D. Ghosh,  
 M. Goldey,  P. R. Horn,  L. D. Jacobson,  I. Kaliman,  R. Z. Khaliullin,  
 T. Kus,  A. Landau,  J. Liu,  E. I. Proynov,  Y. M. Rhee,  R. M. Richard,  
 M. A. Rohrdanz,  R. P. Steele,  E. J. Sundstrom,  H. L. Woodcock III,  
 P. M. Zimmerman,  D. Zuev,  B. Albrecht,  E. Alguire,  B. Austin,  
 S. A. Baeppler,  G. J. O. Beran,  Y. A. Bernard,  E. Berquist,  
 K. Brandhorst,  K. B. Bravaya,  S. T. Brown,  D. Casanova,  C.-M. Chang,  
 Y. Chen,  S. H. Chien,  K. D. Closser,  D. L. Crittenden,  M. Diedenhofen,  
 R. A. DiStasio Jr.,  H. Do,  A. D. Dutoi,  R. G. Edgar,  P.-T. Fang,  
 S. Fatehi,  Q. Feng,  L. Fusti-Molnar,  A. Ghysels,  
 A. Golubeva-Zadorozhnaya,  J. Gomes,  A. Gunina,  M. W. D. Hanson-Heine,  
 P. H. P. Harbach,  A. W. Hauser,  E. G. Hohenstein,  Z. C. Holden,  K. Hui,  
 T.-C. Jagau,  H. Ji,  B. Kaduk,  K. Khistyaev,  Jaehoon Kim,  Jihan Kim,  
 R. A. King,  P. Klunzinger,  D. Kosenkov,  T. Kowalczyk,  C. M. Krauter,  
 K. U. Lao,  A. Laurent,  K. V. Lawler,  S. Lehtola,  S. V. Levchenko,  
 C. Y. Lin,  Y.-S. Lin,  F. Liu,  E. Livshits,  R. C. Lochan,  A. Luenser,  
 P. Manohar,  S. F. Manzer,  S.-P. Mao,  N. Mardirossian,  A. V. Marenich,  
 L. A. Martinez-Martinez,  S. A. Maurer,  N. J. Mayhall,  K. Nanda,  
 C. M. Oana,  R. Olivares-Amaya,  D. P. O'Neill,  J. A. Parkhill,  
 T. M. Perrine,  R. Peverati,  P. A. Pieniazek,  F. Plasser,  A. Prociuk,  
 D. R. Rehn,  E. Rosta,  N. J. Russ,  N. Sergueev,  S. M. Sharada,  
 S. Sharma,  D. W. Small,  A. Sodt,  T. Stauch,  T. Stein,  D. Stuck,  
 Y.-C. Su,  A. J. W. Thom,  T. Tsuchimochi,  L. Vogt,  O. Vydrov,  T. Wang,  
 M. A. Watson,  J. Wenzel,  A. White,  C. F. Williams,  V. Vanovschi,  
 S. Yeganeh,  S. R. Yost,  Z.-Q. You,  I. Y. Zhang,  X. Zhang,  Y. Zhao,  
 B. R. Brooks,  G. K. L. Chan,  D. M. Chipman,  C. J. Cramer,  
 W. A. Goddard III,  M. S. Gordon,  W. J. Hehre,  A. Klamt,  
 H. F. Schaefer III,  M. W. Schmidt,  C. D. Sherrill,  D. G. Truhlar,  
 A. Warshel,  X. Xu,  A. Aspuru-Guzik,  R. Baer,  A. T. Bell,  N. A. Besley,  
 J.-D. Chai,  A. Dreuw,  B. D. Dunietz,  T. R. Furlani,  S. R. Gwaltney,  
 C.-P. Hsu,  Y. Jung,  J. Kong,  D. S. Lambrecht,  W. Liang,  C. Ochsenfeld,  
 V. A. Rassolov,  L. V. Slipchenko,  J. E. Subotnik,  T. Van Voorhis,  
 J. M. Herbert,  A. I. Krylov,  P. M. W. Gill,  M. Head-Gordon

 Contributors to earlier versions of Q-Chem not listed above: 
 R. D. Adamson,  J. Baker,  E. F. C. Byrd,  A. K. Chakraborty,  C.-L. Cheng,  
 H. Dachsel,  R. J. Doerksen,  G. Hawkins,  A. Heyden,  S. Hirata,  
 G. Kedziora,  F. J. Keil,  C. Kelley,  P. P. Korambath,  W. Kurlancheek,  
 A. M. Lee,  M. S. Lee,  D. Liotard,  I. Lotan,  P. E. Maslen,  N. Nair,  
 D. Neuhauser,  R. Olson,  B. Peters,  J. Ritchie,  N. E. Schultz,  
 N. Shenvi,  A. C. Simmonett,  K. S. Thanthiriwatte,  Q. Wu,  W. Zhang

 Please cite Q-Chem as follows:
 Y. Shao et al., Mol. Phys. 113, 184-215 (2015)
 DOI: 10.1080/00268976.2014.952696

 Q-Chem 4.3.0 for Intel X86 Linux

 Parts of Q-Chem use Armadillo 5.200.1 (Boston Tea Smuggler).
 http://arma.sourceforge.net/

 Q-Chem begins on Mon Jan 30 14:01:23 2017  

Host: 
0

     Scratch files written to /scratch/qchem/qchem3330//
 Nov1815 1189b_ 19540  19532 5443   
 Parallel job on  1  processors
Processing $rem in /mnt/software/qchem/config/preferences.
 MEM_TOTAL  2000 

Checking the input file for inconsistencies... 	...done.

--------------------------------------------------------------
User input:
--------------------------------------------------------------

$comment
job2 - MOM calculation for 2b excited state wavefuntion
$end

$molecule
read
$end

$rem
JOBTYPE           SP
EXCHANGE          HF
BASIS             6-31G*
SCF_GUESS         READ
MOM_START         1
UNRESTRICTED      TRUE
sym_ignore true
$end

$swap_occupied_virtual
beta   20  23	!beta electron in RHF HOMO-1 moved to RHF LUMO+1
$end

--------------------------------------------------------------
 ----------------------------------------------------------------
             Standard Nuclear Orientation (Angstroms)
    I     Atom           X                Y                Z
 ----------------------------------------------------------------
    1      C      -0.6961260000    -1.1364190000     0.0000000000
    2      C       0.6961260000    -1.1364190000     0.0000000000
    3      N      -1.4175320000     0.0000000000     0.0000000000
    4      N       1.4175320000     0.0000000000     0.0000000000
    5      C       0.6961260000     1.1364190000     0.0000000000
    6      C      -0.6961260000     1.1364190000     0.0000000000
    7      H       1.2506250000     2.0671600000     0.0000000000
    8      H      -1.2506250000     2.0671600000     0.0000000000
    9      H       1.2506250000    -2.0671600000     0.0000000000
   10      H      -1.2506250000    -2.0671600000     0.0000000000
 ----------------------------------------------------------------
 Nuclear Repulsion Energy =   207.9974042823 hartrees
 There are       21 alpha and       21 beta electrons
 Requested basis set is 6-31G(d)
 There are 32 shells and 98 basis functions

 Total QAlloc Memory Limit   2000 MB
 Mega-Array Size        61 MB
 MEM_STATIC part        62 MB

                       Distance Matrix (Angstroms)
             C (  1)   C (  2)   N (  3)   N (  4)   C (  5)   C (  6)
   C (  2)  1.392252
   N (  3)  1.346059  2.399791
   N (  4)  2.399791  1.346059  2.835064
   C (  5)  2.665363  2.272838  2.399791  1.346059
   C (  6)  2.272838  2.665363  1.346059  2.399791  1.392252
   H (  7)  3.748701  3.251213  3.375235  2.073887  1.083396  2.157804
   H (  8)  3.251213  3.748701  2.073887  3.375235  2.157804  1.083396
   H (  9)  2.157804  1.083396  3.375235  2.073887  3.251213  3.748701
   H ( 10)  1.083396  2.157804  2.073887  3.375235  3.748701  3.251213
             H (  7)   H (  8)   H (  9)
   H (  8)  2.501250
   H (  9)  4.134320  4.832065
   H ( 10)  4.832065  4.134320  2.501250
 
 tim1(1): 
  0.000000000000000E+000
 tim1(2): 
  0.000000000000000E+000
 A cutoff of  1.0D-08 yielded    495 shell pairs
 There are      4944 function pairs
 
 -------------------------------------------------------
 OpenMP Integral Computing Module                       
 Release: version 1.0, May 2013, Q-Chem Inc. Pittsburgh 
 -------------------------------------------------------
 Integral Job Info:
 Integral job number is                      11
 Integral operator is                         1
 short-range coefficients                     0
 long-range coefficients              100000000
 Omega coefficients                           0
 if combine SR and LR in K                    0
 Integral screening is                        0
 Integral computing path is                   2
 max size of driver memory is            800000
 size of driver memory is                593474
 size of scratch memory is              2260544
 max col of scratch BK array               1296
 max len of scratch array in speh3          155
 max len of scratch index in speh4           18
 max int batch size is                      520
 min int batch size is                       52
 fixed nKL is                                52
 max L of basis functions is                  2
 order of int derivative is                   0
 number of shells is                         32
 number of basis is                          98
 number of cartesian basis is                98
 number of contracted shell pairs           495
 number of primitive shell pairs           2101
 maxK2 (contraction) of shell pair           36
 max number of K2 of shell pair               1
 max number of CS2 of shell pair             52
 max number of PS2 of shell pair            312
 mem total for path MDJ                   27448
 -------------------------------------------------------
 Smallest overlap matrix eigenvalue = 1.40E-03

 Scale SEOQF with 1.000000e-01/1.000000e-01/1.000000e+00

 Standard Electronic Orientation quadrupole field applied
 Nucleus-field energy     =     0.0000000051 hartrees
 Guess MOs from SCF MO coefficient file
 Reading MOs from coefficient file
 User-specified occupied guess orbitals will be used
   Alpha:
   1   2   3   4   5   6   7   8   9  10  11  12  13  14  15
  16  17  18  19  20  21
 Reading MOs from coefficient file
   Beta:
   1   2   3   4   5   6   7   8   9  10  11  12  13  14  15
  16  17  18  19  23  21
 An unrestricted Hartree-Fock SCF calculation will be
 performed using Pulay DIIS extrapolation
 SCF converges when DIIS error is below 1.0E-05
 using 8 threads for integral computing 
 MOM overlap:    20.9794404325 / 21
 MOM overlap:    20.9886447892 / 21
 ---------------------------------------
  Cycle       Energy         DIIS Error
 ---------------------------------------
    1    -262.4049444692      3.83E-03
 MOM overlap:    20.9993338775 / 21
 MOM overlap:    20.9947333057 / 21
    2    -262.4327277997      2.55E-03
 MOM overlap:    20.9979118393 / 21
 MOM overlap:    20.9977041778 / 21
    3    -262.4436680574      4.59E-04
 MOM overlap:    20.9990093882 / 21
 MOM overlap:    20.9990050917 / 21
    4    -262.4485758191      1.40E-04
 MOM overlap:    20.9993912232 / 21
 MOM overlap:    20.9994539548 / 21
    5    -262.4506703681      7.49E-05
 MOM overlap:    20.9991731714 / 21
 MOM overlap:    20.9992681982 / 21
    6    -262.4517671321      4.14E-05
 MOM overlap:    20.9996809952 / 21
 MOM overlap:    20.9997302324 / 21
    7    -262.4525154708      2.09E-05
 MOM overlap:    20.9999767919 / 21
 MOM overlap:    20.9999811532 / 21
    8    -262.4526947544      5.83E-06 Convergence criterion met
 ---------------------------------------
 <S^2> = 1.1872
 SCF time:  CPU 12.44 s  wall 2.25 s
 SCF   energy in the final basis set = -262.4526947544
 Total energy in the final basis set = -262.4526947544
 
 --------------------------------------------------------------
 
                    Orbital Energies (a.u.)
 --------------------------------------------------------------
 
 Alpha MOs
 -- Occupied --
-15.673 -15.673 -11.259 -11.259 -11.258 -11.258  -1.323  -1.254
 -1.034  -0.915  -0.879  -0.737  -0.713  -0.665  -0.600  -0.592
 -0.582  -0.552  -0.494  -0.476  -0.293
 -- Virtual --
  0.058   0.185   0.262   0.286   0.310   0.324   0.343   0.345
  0.460   0.490   0.501   0.629   0.679   0.705   0.736   0.767
  0.809   0.827   0.830   0.834   0.869   0.895   0.918   0.961
  1.019   1.032   1.044   1.087   1.096   1.101   1.113   1.185
  1.189   1.252   1.287   1.331   1.346   1.478   1.500   1.530
  1.632   1.738   1.756   1.757   1.770   1.815   1.897   2.008
  2.082   2.124   2.157   2.301   2.348   2.440   2.499   2.520
  2.528   2.530   2.621   2.638   2.735   2.798   2.892   2.907
  3.010   3.050   3.077   3.089   3.143   3.406   3.719   4.234
  4.508   4.559   4.569   4.751   4.909
 
 Beta MOs
 -- Occupied --
-15.646 -15.646 -11.269 -11.269 -11.268 -11.268  -1.295  -1.203
 -1.055  -0.897  -0.870  -0.698  -0.681  -0.663  -0.595  -0.582
 -0.541  -0.455  -0.428  -0.366  -0.179
 -- Virtual --
 -0.092   0.104   0.262   0.283   0.284   0.305   0.313   0.347
  0.469   0.480   0.503   0.615   0.667   0.720   0.723   0.740
  0.782   0.819   0.824   0.833   0.855   0.876   0.919   0.976
  1.065   1.065   1.071   1.080   1.093   1.112   1.133   1.182
  1.198   1.251   1.271   1.341   1.355   1.479   1.485   1.550
  1.622   1.738   1.751   1.756   1.777   1.778   1.931   2.023
  2.069   2.145   2.166   2.297   2.358   2.410   2.474   2.515
  2.529   2.547   2.593   2.647   2.734   2.821   2.873   2.914
  3.030   3.042   3.079   3.093   3.168   3.421   3.730   4.263
  4.497   4.549   4.588   4.739   4.908
 --------------------------------------------------------------
 
          Ground-State Mulliken Net Atomic Charges

     Atom                 Charge (a.u.)    Spin (a.u.)
  --------------------------------------------------------
      1 C                    -0.070584      -0.467945
      2 C                    -0.070584      -0.467945
      3 N                    -0.317872       0.783699
      4 N                    -0.317872       0.783699
      5 C                    -0.070584      -0.467945
      6 C                    -0.070584      -0.467945
      7 H                     0.229520       0.076096
      8 H                     0.229520       0.076096
      9 H                     0.229520       0.076096
     10 H                     0.229520       0.076096
  --------------------------------------------------------
  Sum of atomic charges =     0.000000
  Sum of spin   charges =     0.000000

 -----------------------------------------------------------------
                    Cartesian Multipole Moments
 -----------------------------------------------------------------
    Charge (ESU x 10^10)
                 0.0000
    Dipole Moment (Debye)
         X       0.0000      Y       0.0000      Z       0.0000
       Tot       0.0000
    Quadrupole Moments (Debye-Ang)
        XX     -36.5137     XY       0.0000     YY     -27.8170
        XZ       0.0000     YZ       0.0000     ZZ     -37.9462
    Octopole Moments (Debye-Ang^2)
       XXX       0.0000    XXY       0.0000    XYY       0.0000
       YYY       0.0000    XXZ       0.0000    XYZ       0.0000
       YYZ       0.0000    XZZ       0.0000    YZZ       0.0000
       ZZZ       0.0000
    Hexadecapole Moments (Debye-Ang^3)
      XXXX    -265.5360   XXXY       0.0000   XXYY     -70.5228
      XYYY       0.0000   YYYY    -224.5664   XXXZ       0.0000
      XXYZ       0.0000   XYYZ       0.0000   YYYZ       0.0000
      XXZZ     -51.7248   XYZZ       0.0000   YYZZ     -56.8845
      XZZZ       0.0000   YZZZ       0.0000   ZZZZ     -38.5572
 -----------------------------------------------------------------
Archival summary:
1\1\tp-linux1\SP\HF\6-31G*\244\thomas\MonJan3014:01:262017MonJan3014:01:262017\0\\#,HF,6-31G*,\\0,1\N\C,1,1.34606\H,2,1.0834,1,116.808\C,1,1.34606,2,115.185,3,-180,0\H,4,1.0834,1,116.808,2,-180,0\C,2,1.39225,1,122.408,3,-180,0\H,6,1.0834,2,120.785,1,-180,0\N,6,1.34606,2,122.408,1,0,0\C,8,1.34606,6,115.185,2,0,0\H,9,1.0834,8,116.808,6,-180,0\\HF=-262.452695\\@

 Total job time:  2.55s(wall), 14.07s(cpu) 
 Mon Jan 30 14:01:26 2017

        *************************************************************
        *                                                           *
        *  Thank you very much for using Q-Chem.  Have a nice day.  *
        *                                                           *
        *************************************************************


0 sent ACK to 0 
now end server 0 ... 
cleanup process ... done

Running Job 3 of 3 cvs-adc-mom-s2.inp
qchem cvs-adc-mom-s2.inp_3330.2 /scratch/qchem/qchem3330/ 1
/mnt/software/qchem/bin/mpi/mpirun_qchem -machinefile /mnt/software/qchem/bin/mpi/machines -np 1 /mnt/software/qchem/exe/qcprog.exe cvs-adc-mom-s2.inp_3330.2 /scratch/qchem/qchem3330/

Process 0 of 1 is on tp-linux1 - thread support 0
initial socket setup ...start
initial socket setup ...done 
now start server 0 ... 

cmd = ssh tp-linux1 /mnt/software/qchem/bin/get_hostid 183971825 > /scratch/qchem/qchem3330/lic.dat
                  Welcome to Q-Chem
     A Quantum Leap Into The Future Of Chemistry


 Q-Chem 4.3, Q-Chem, Inc., Pleasanton, CA (2015)

 Y. Shao,  Z. Gan,  E. Epifanovsky,  A. T. B. Gilbert,  M. Wormit,  
 J. Kussmann,  A. W. Lange,  A. Behn,  J. Deng,  X. Feng,  D. Ghosh,  
 M. Goldey,  P. R. Horn,  L. D. Jacobson,  I. Kaliman,  R. Z. Khaliullin,  
 T. Kus,  A. Landau,  J. Liu,  E. I. Proynov,  Y. M. Rhee,  R. M. Richard,  
 M. A. Rohrdanz,  R. P. Steele,  E. J. Sundstrom,  H. L. Woodcock III,  
 P. M. Zimmerman,  D. Zuev,  B. Albrecht,  E. Alguire,  B. Austin,  
 S. A. Baeppler,  G. J. O. Beran,  Y. A. Bernard,  E. Berquist,  
 K. Brandhorst,  K. B. Bravaya,  S. T. Brown,  D. Casanova,  C.-M. Chang,  
 Y. Chen,  S. H. Chien,  K. D. Closser,  D. L. Crittenden,  M. Diedenhofen,  
 R. A. DiStasio Jr.,  H. Do,  A. D. Dutoi,  R. G. Edgar,  P.-T. Fang,  
 S. Fatehi,  Q. Feng,  L. Fusti-Molnar,  A. Ghysels,  
 A. Golubeva-Zadorozhnaya,  J. Gomes,  A. Gunina,  M. W. D. Hanson-Heine,  
 P. H. P. Harbach,  A. W. Hauser,  E. G. Hohenstein,  Z. C. Holden,  K. Hui,  
 T.-C. Jagau,  H. Ji,  B. Kaduk,  K. Khistyaev,  Jaehoon Kim,  Jihan Kim,  
 R. A. King,  P. Klunzinger,  D. Kosenkov,  T. Kowalczyk,  C. M. Krauter,  
 K. U. Lao,  A. Laurent,  K. V. Lawler,  S. Lehtola,  S. V. Levchenko,  
 C. Y. Lin,  Y.-S. Lin,  F. Liu,  E. Livshits,  R. C. Lochan,  A. Luenser,  
 P. Manohar,  S. F. Manzer,  S.-P. Mao,  N. Mardirossian,  A. V. Marenich,  
 L. A. Martinez-Martinez,  S. A. Maurer,  N. J. Mayhall,  K. Nanda,  
 C. M. Oana,  R. Olivares-Amaya,  D. P. O'Neill,  J. A. Parkhill,  
 T. M. Perrine,  R. Peverati,  P. A. Pieniazek,  F. Plasser,  A. Prociuk,  
 D. R. Rehn,  E. Rosta,  N. J. Russ,  N. Sergueev,  S. M. Sharada,  
 S. Sharma,  D. W. Small,  A. Sodt,  T. Stauch,  T. Stein,  D. Stuck,  
 Y.-C. Su,  A. J. W. Thom,  T. Tsuchimochi,  L. Vogt,  O. Vydrov,  T. Wang,  
 M. A. Watson,  J. Wenzel,  A. White,  C. F. Williams,  V. Vanovschi,  
 S. Yeganeh,  S. R. Yost,  Z.-Q. You,  I. Y. Zhang,  X. Zhang,  Y. Zhao,  
 B. R. Brooks,  G. K. L. Chan,  D. M. Chipman,  C. J. Cramer,  
 W. A. Goddard III,  M. S. Gordon,  W. J. Hehre,  A. Klamt,  
 H. F. Schaefer III,  M. W. Schmidt,  C. D. Sherrill,  D. G. Truhlar,  
 A. Warshel,  X. Xu,  A. Aspuru-Guzik,  R. Baer,  A. T. Bell,  N. A. Besley,  
 J.-D. Chai,  A. Dreuw,  B. D. Dunietz,  T. R. Furlani,  S. R. Gwaltney,  
 C.-P. Hsu,  Y. Jung,  J. Kong,  D. S. Lambrecht,  W. Liang,  C. Ochsenfeld,  
 V. A. Rassolov,  L. V. Slipchenko,  J. E. Subotnik,  T. Van Voorhis,  
 J. M. Herbert,  A. I. Krylov,  P. M. W. Gill,  M. Head-Gordon

 Contributors to earlier versions of Q-Chem not listed above: 
 R. D. Adamson,  J. Baker,  E. F. C. Byrd,  A. K. Chakraborty,  C.-L. Cheng,  
 H. Dachsel,  R. J. Doerksen,  G. Hawkins,  A. Heyden,  S. Hirata,  
 G. Kedziora,  F. J. Keil,  C. Kelley,  P. P. Korambath,  W. Kurlancheek,  
 A. M. Lee,  M. S. Lee,  D. Liotard,  I. Lotan,  P. E. Maslen,  N. Nair,  
 D. Neuhauser,  R. Olson,  B. Peters,  J. Ritchie,  N. E. Schultz,  
 N. Shenvi,  A. C. Simmonett,  K. S. Thanthiriwatte,  Q. Wu,  W. Zhang

 Please cite Q-Chem as follows:
 Y. Shao et al., Mol. Phys. 113, 184-215 (2015)
 DOI: 10.1080/00268976.2014.952696

 Q-Chem 4.3.0 for Intel X86 Linux

 Parts of Q-Chem use Armadillo 5.200.1 (Boston Tea Smuggler).
 http://arma.sourceforge.net/

 Q-Chem begins on Mon Jan 30 14:01:28 2017  

Host: 
0

     Scratch files written to /scratch/qchem/qchem3330//
 Nov1815 1189b_ 19540  19532 5443   
 Parallel job on  1  processors
Processing $rem in /mnt/software/qchem/config/preferences.
 MEM_TOTAL  2000 

Checking the input file for inconsistencies... 	...done.

--------------------------------------------------------------
User input:
--------------------------------------------------------------

$comment
job3 - cvs-adc(2)-x calculation with mom to prevent collapse to ground state
$end

$molecule
read
$end

$rem
mem_total 3000
mem_static 1500
sym_ignore true
mom_start 1
scf_guess read
method cvs-adc(2)-x
ADC_DAVIDSON_MAXSUBSPACE 300   !subspace is n times number of excited states to be calculated, default=5
ADC_DAVIDSON_CONV 6	       !converge to 10^-n, default n=6
ADC_DAVIDSON_MAXITER 60        !Controls the maximum number of iterations of the Davidson procedure. Default = 60
basis 6-31G*
ee_singlets 20
cc_rest_occ 1                  !only excitations from the 1st orbital (N 1s)
unrestricted  true
max_scf_cycles 200
$end
--------------------------------------------------------------
 ----------------------------------------------------------------
             Standard Nuclear Orientation (Angstroms)
    I     Atom           X                Y                Z
 ----------------------------------------------------------------
    1      C      -0.6961260000    -1.1364190000     0.0000000000
    2      C       0.6961260000    -1.1364190000     0.0000000000
    3      N      -1.4175320000     0.0000000000     0.0000000000
    4      N       1.4175320000     0.0000000000     0.0000000000
    5      C       0.6961260000     1.1364190000     0.0000000000
    6      C      -0.6961260000     1.1364190000     0.0000000000
    7      H       1.2506250000     2.0671600000     0.0000000000
    8      H      -1.2506250000     2.0671600000     0.0000000000
    9      H       1.2506250000    -2.0671600000     0.0000000000
   10      H      -1.2506250000    -2.0671600000     0.0000000000
 ----------------------------------------------------------------
 Nuclear Repulsion Energy =   207.9974042823 hartrees
 There are       21 alpha and       21 beta electrons
 Requested basis set is 6-31G(d)
 There are 32 shells and 98 basis functions

 Total QAlloc Memory Limit   3000 MB
 Mega-Array Size      1467 MB
 MEM_STATIC part      1500 MB

                       Distance Matrix (Angstroms)
             C (  1)   C (  2)   N (  3)   N (  4)   C (  5)   C (  6)
   C (  2)  1.392252
   N (  3)  1.346059  2.399791
   N (  4)  2.399791  1.346059  2.835064
   C (  5)  2.665363  2.272838  2.399791  1.346059
   C (  6)  2.272838  2.665363  1.346059  2.399791  1.392252
   H (  7)  3.748701  3.251213  3.375235  2.073887  1.083396  2.157804
   H (  8)  3.251213  3.748701  2.073887  3.375235  2.157804  1.083396
   H (  9)  2.157804  1.083396  3.375235  2.073887  3.251213  3.748701
   H ( 10)  1.083396  2.157804  2.073887  3.375235  3.748701  3.251213
             H (  7)   H (  8)   H (  9)
   H (  8)  2.501250
   H (  9)  4.134320  4.832065
   H ( 10)  4.832065  4.134320  2.501250
 
 tim1(1): 
  0.000000000000000E+000
 tim1(2): 
  0.000000000000000E+000
 A cutoff of  1.0D-11 yielded    513 shell pairs
 There are      4998 function pairs
 
 -------------------------------------------------------
 OpenMP Integral Computing Module                       
 Release: version 1.0, May 2013, Q-Chem Inc. Pittsburgh 
 -------------------------------------------------------
 Integral Job Info:
 Integral job number is                      11
 Integral operator is                         1
 short-range coefficients                     0
 long-range coefficients              100000000
 Omega coefficients                           0
 if combine SR and LR in K                    0
 Integral screening is                        0
 Integral computing path is                   2
 max size of driver memory is            800000
 size of driver memory is                593474
 size of scratch memory is              2260544
 max col of scratch BK array               1296
 max len of scratch array in speh3          155
 max len of scratch index in speh4           18
 max int batch size is                      520
 min int batch size is                       52
 fixed nKL is                                52
 max L of basis functions is                  2
 order of int derivative is                   0
 number of shells is                         32
 number of basis is                          98
 number of cartesian basis is                98
 number of contracted shell pairs           513
 number of primitive shell pairs           2277
 maxK2 (contraction) of shell pair           36
 max number of K2 of shell pair               1
 max number of CS2 of shell pair             58
 max number of PS2 of shell pair            348
 mem total for path MDJ                   28696
 -------------------------------------------------------
 Smallest overlap matrix eigenvalue = 1.40E-03

 Scale SEOQF with 1.000000e-01/1.000000e-01/1.000000e+00

 Standard Electronic Orientation quadrupole field applied
 Nucleus-field energy     =     0.0000000051 hartrees
 Guess MOs from SCF MO coefficient file
 Reading MOs from coefficient file
 Reading MOs from coefficient file
 An unrestricted Hartree-Fock SCF calculation will be
 performed using Pulay DIIS extrapolation
 SCF converges when DIIS error is below 1.0E-08
 using 8 threads for integral computing 
 MOM overlap:    20.9999999442 / 21
 MOM overlap:    20.9999999327 / 21
 ---------------------------------------
  Cycle       Energy         DIIS Error
 ---------------------------------------
    1    -262.4527060426      1.30E-06
 MOM overlap:    20.9999999635 / 21
 MOM overlap:    20.9999999699 / 21
    2    -262.4527062263      7.71E-07
 MOM overlap:    20.9999999056 / 21
 MOM overlap:    20.9999999066 / 21
    3    -262.4527063245      6.03E-07
 MOM overlap:    20.9999999581 / 21
 MOM overlap:    20.9999999622 / 21
    4    -262.4527064326      2.99E-07
 MOM overlap:    20.9999999863 / 21
 MOM overlap:    20.9999999882 / 21
    5    -262.4527064659      1.35E-07
 MOM overlap:    20.9999999996 / 21
 MOM overlap:    20.9999999997 / 21
    6    -262.4527064719      3.73E-08
 MOM overlap:    21.0000000000 / 21
 MOM overlap:    20.9999999999 / 21
    7    -262.4527064720      1.72E-08
 MOM overlap:    21.0000000000 / 21
 MOM overlap:    20.9999999998 / 21
    8    -262.4527064721      3.91E-08
 MOM overlap:    21.0000000000 / 21
 MOM overlap:    21.0000000000 / 21
    9    -262.4527064721      3.70E-09 Convergence criterion met
 ---------------------------------------
 <S^2> = 1.1889
 SCF time:  CPU 11.62 s  wall 4.70 s
 SCF   energy in the final basis set = -262.4527064721
 Total energy in the final basis set = -262.4527064721
================================================================================
|                                                                              |
|                                 A D C  M A N                                 |
|                                                                              |
 ------------------------------------------------------------------------------ 
|                                                                              |
| Components:                                                                  |
|                                                                              |
| - libvmm - 1.2-release                                                       |
|   Authors:                                                                   |
|   Evgeny Epifanovsky, Ilya Kaliman                                           |
|                                                                              |
| - libtensor - 2.4-trunk                                                      |
|   Authors:                                                                   |
|   Evgeny Epifanovsky, Michael Wormit, Dmitry Zuev, Sam Manzer                |
|                                                                              |
| - libwfa - 1.1-beta                                                          |
|   Authors:                                                                   |
|   Felix Plasser, Stefanie Baeppler, Benjamin Thomitzni, Michael Wormit       |
|                                                                              |
| - libadc - 1.0-beta                                                          |
|   Authors:                                                                   |
|   Michael Wormit, Philipp H. P. Harbach, Caroline Krauter, Dirk Rehn,        |
|   Matthias Schneider, Jan Wenzel                                             |
|                                                                              |
| - adcman - 2.4-beta                                                          |
|   Authors:                                                                   |
|   Michael Wormit, Philipp H. P. Harbach, Caroline Krauter, Dirk Rehn,        |
|   Jan Wenzel, Andreas Dreuw                                                  |
|                                                                              |
| Authors of earlier versions of ADCMAN:                                       |
| Andreas Dreuw, Jan Hendrik Starcke, Dirk Rehn, Michael Wormit                |
|                                                                              |
================================================================================

 
 Alpha MOs, Unrestricted
 -- Occupied --                  
-15.673 -15.673 -11.259 -11.259 -11.258 -11.258  -1.323  -1.254
  1 A     2 A     3 A     4 A     5 A     6 A     7 A     8 A                  
 -1.034  -0.915  -0.879  -0.737  -0.713  -0.665  -0.600  -0.592
  9 A    10 A    11 A    12 A    13 A    14 A    15 A    16 A                  
 -0.582  -0.552  -0.495  -0.476  -0.293
 17 A    18 A    19 A    20 A    21 A                                          
 -- Virtual --                   
  0.058   0.185   0.262   0.286   0.310   0.324   0.343   0.345
 22 A    23 A    24 A    25 A    26 A    27 A    28 A    29 A                  
  0.460   0.490   0.501   0.629   0.679   0.705   0.736   0.767
 30 A    31 A    32 A    33 A    34 A    35 A    36 A    37 A                  
  0.809   0.827   0.830   0.834   0.869   0.895   0.918   0.962
 38 A    39 A    40 A    41 A    42 A    43 A    44 A    45 A                  
  1.019   1.032   1.044   1.087   1.096   1.101   1.113   1.185
 46 A    47 A    48 A    49 A    50 A    51 A    52 A    53 A                  
  1.189   1.252   1.287   1.331   1.346   1.478   1.500   1.530
 54 A    55 A    56 A    57 A    58 A    59 A    60 A    61 A                  
  1.632   1.738   1.756   1.757   1.770   1.815   1.897   2.008
 62 A    63 A    64 A    65 A    66 A    67 A    68 A    69 A                  
  2.082   2.124   2.157   2.301   2.348   2.440   2.500   2.520
 70 A    71 A    72 A    73 A    74 A    75 A    76 A    77 A                  
  2.528   2.530   2.621   2.638   2.735   2.798   2.892   2.907
 78 A    79 A    80 A    81 A    82 A    83 A    84 A    85 A                  
  3.010   3.050   3.077   3.089   3.143   3.406   3.719   4.234
 86 A    87 A    88 A    89 A    90 A    91 A    92 A    93 A                  
  4.508   4.559   4.569   4.751   4.909
 94 A    95 A    96 A    97 A    98 A                                          
 
 Beta MOs, Unrestricted
 -- Occupied --                  
-15.646 -15.646 -11.269 -11.269 -11.268 -11.268  -1.295  -1.203
  1 A     2 A     3 A     4 A     5 A     6 A     7 A     8 A                  
 -1.055  -0.897  -0.870  -0.698  -0.681  -0.663  -0.595  -0.581
  9 A    10 A    11 A    12 A    13 A    14 A    15 A    16 A                  
 -0.541  -0.454  -0.429  -0.365  -0.179
 17 A    18 A    19 A    20 A    21 A                                          
 -- Virtual --                   
 -0.092   0.104   0.262   0.283   0.284   0.305   0.313   0.347
 22 A    23 A    24 A    25 A    26 A    27 A    28 A    29 A                  
  0.469   0.480   0.503   0.615   0.667   0.720   0.723   0.740
 30 A    31 A    32 A    33 A    34 A    35 A    36 A    37 A                  
  0.782   0.819   0.824   0.833   0.855   0.876   0.919   0.976
 38 A    39 A    40 A    41 A    42 A    43 A    44 A    45 A                  
  1.065   1.065   1.071   1.080   1.093   1.112   1.133   1.182
 46 A    47 A    48 A    49 A    50 A    51 A    52 A    53 A                  
  1.198   1.251   1.271   1.341   1.355   1.479   1.485   1.550
 54 A    55 A    56 A    57 A    58 A    59 A    60 A    61 A                  
  1.622   1.738   1.751   1.756   1.777   1.778   1.931   2.023
 62 A    63 A    64 A    65 A    66 A    67 A    68 A    69 A                  
  2.069   2.145   2.166   2.297   2.359   2.410   2.474   2.515
 70 A    71 A    72 A    73 A    74 A    75 A    76 A    77 A                  
  2.529   2.548   2.593   2.647   2.734   2.821   2.873   2.914
 78 A    79 A    80 A    81 A    82 A    83 A    84 A    85 A                  
  3.030   3.042   3.079   3.093   3.168   3.421   3.730   4.263
 86 A    87 A    88 A    89 A    90 A    91 A    92 A    93 A                  
  4.497   4.549   4.588   4.739   4.908
 94 A    95 A    96 A    97 A    98 A                                          
 

--------------------------------------------------------------------------------
                                   HF Summary                                   
--------------------------------------------------------------------------------
  Energy:                                                 -262.4527064721 a.u.
  Dip. moment [a.u.]:                  [   0.000000,    0.000000,    0.000000]
  Total dipole [Debye]:                                               0.000000
  <r^2> [a.u.]:                        [ 191.479717,  192.405828,   28.211065]
  Total <r^2> [a.u.]:                                               412.096610
--------------------------------------------------------------------------------

--------------------------------------------------------------------------------
                                 MP(2) Summary                                  
--------------------------------------------------------------------------------
  Energy contribution:                                      -0.8834790181 a.u.
  Total energy:                                           -263.3361854902 a.u.
  Dip. moment [a.u.]:                  [  -0.000000,    0.000000,   -0.000000]
  Total dipole [Debye]:                                               0.000000
  <r^2> [a.u.]:                        [ 191.016068,  191.965538,   27.681544]
  Total <r^2> [a.u.]:                                               410.663150
--------------------------------------------------------------------------------
  Starting Davidson ... 
--------------------------------------------------------------------------------
   It NVec Conv  Avg. Norm  Max. Norm  Conv. states           Remark
--------------------------------------------------------------------------------
        20    0  2.253e-01  1.052e+00 15.2160 n n n n n n n n Guess.
    1   40    0  1.276e-01  1.057e+00 14.9404 n n n n n n n n 
    2   60    0  7.028e-02  6.053e-01 14.9187 n n n n n n n n 
    3   80    0  3.849e-02  4.279e-01 14.9174 n n n n n n n n 
    4  100    0  3.018e-02  3.717e-01 14.9173 n n n n n n n n 
    5  120    0  2.623e-02  3.634e-01 14.9173 n n n n n n n n 
    6  140    0  2.822e-02  3.590e-01 14.9173 n n n n n n n n 
    7  160    0  2.052e-02  2.834e-01 14.9173 n n n n n n n n 
    8  180    0  2.045e-02  2.589e-01 14.9173 n n n n n n n n 
    9  200    0  1.035e-02  1.262e-01 14.9173 n n n n n n n n 
   10  220    0  5.038e-03  6.389e-02 14.9173 n n n n n n n n 
   11  240    1  2.435e-03  3.033e-02 14.9173 y n n n n n n n 
   12  260    2  5.263e-03  1.032e-01 14.9173 y n n y n n n n 
   13  280    2  1.875e-02  3.690e-01 14.9173 y n n n y n n n 
   14  300    3  1.936e-02  3.490e-01 14.9173 y n n n n y n y 
   15   40    5  7.797e-03  1.438e-01 14.9173 y n n y n y n y Subspace collapsed.
   16   60    6  2.817e-03  4.619e-02 14.9173 y n n y n y n y 
   17   80    7  5.649e-03  1.115e-01 14.9173 y n n y n y n y 
   18  100    7  2.581e-03  5.095e-02 14.9173 y n n y n y n y 
   19  120   11  1.013e-03  1.946e-02 14.9173 y n n y y y y y 
   20  140   12  4.800e-04  9.030e-03 14.9173 y n n y y y y y 
   21  160   12  2.603e-04  4.846e-03 14.9173 y n n y y y y y 
   22  180   12  1.302e-04  2.385e-03 14.9173 y n n y y y y y 
   23  199   13  6.190e-05  1.126e-03 14.9173 y n n y y y y y 
   24  218   13  3.140e-05  5.818e-04 14.9173 y n n y y y y y 
   25  236   16  1.467e-05  2.714e-04 14.9173 y y n y y y y y 
   26  254   17  6.371e-06  1.087e-04 14.9173 y y n y y y y y 
   27  256   18  6.369e-06  1.087e-04 14.9173 y y y y y y y y 
   28  273   18  3.209e-06  5.275e-05 14.9173 y y y y y y y y 
   29  290   18  1.639e-06  2.649e-05 14.9173 y y y y y y y y 
   30  300   18  1.053e-06  1.846e-05 14.9173 y y y y y y y y 
   31   36   18  4.708e-07  8.106e-06 14.9173 y y y y y y y y Subspace collapsed.
   32   52   18  4.255e-07  7.458e-06 14.9173 y y y y y y y y 
   33   54   18  4.253e-07  7.455e-06 14.9173 y y y y y y y y 
   34   69   18  2.617e-07  4.708e-06 14.9173 y y y y y y y y 
   35   84   18  1.878e-07  3.524e-06 14.9173 y y y y y y y y 
   36   98   19  1.395e-07  2.685e-06 14.9173 y y y y y y y y 
   37  100   19  1.306e-07  2.503e-06 14.9173 y y y y y y y y 
   38  102   19  1.269e-07  2.427e-06 14.9173 y y y y y y y y 
   39  104   19  1.274e-07  2.438e-06 14.9173 y y y y y y y y 
   40  104   19  1.274e-07  2.438e-06 14.9173 y y y y y y y y 
   41  124   19  1.037e-07  2.029e-06 14.9173 y y y y y y y y 
   42  133   19  8.495e-08  1.687e-06 14.9173 y y y y y y y y 
   43  141   19  5.408e-08  1.077e-06 14.9173 y y y y y y y y 
   44  149   20  3.281e-08  6.543e-07 14.9173 y y y y y y y y Converged.
--------------------------------------------------------------------------------
  Davidson Summary: 
 ------------------------------------------------------------
  State  0: excitation energy =  14.9173 a.u.   (converged)
  State  1: excitation energy =  14.9491 a.u.   (converged)
  State  2: excitation energy =  14.9706 a.u.   (converged)
  State  3: excitation energy =  15.0508 a.u.   (converged)
  State  4: excitation energy =  15.0658 a.u.   (converged)
  State  5: excitation energy =  15.0909 a.u.   (converged)
  State  6: excitation energy =  15.1319 a.u.   (converged)
  State  7: excitation energy =  15.1452 a.u.   (converged)
  State  8: excitation energy =  15.1537 a.u.   (converged)
  State  9: excitation energy =  15.1972 a.u.   (converged)
  State 10: excitation energy =  15.2005 a.u.   (converged)
  State 11: excitation energy =  15.2180 a.u.   (converged)
  State 12: excitation energy =  15.2392 a.u.   (converged)
  State 13: excitation energy =  15.2427 a.u.   (converged)
  State 14: excitation energy =  15.2460 a.u.   (converged)
  State 15: excitation energy =  15.2582 a.u.   (converged)
  State 16: excitation energy =  15.2679 a.u.   (converged)
  State 17: excitation energy =  15.2713 a.u.   (converged)
  State 18: excitation energy =  15.2724 a.u.   (converged)
  State 19: excitation energy =  15.2869 a.u.   (converged)
 ------------------------------------------------------------


--------------------------------------------------------------------------------
                             Excited State Summary
--------------------------------------------------------------------------------

  Excited state  1 (A)                                             [converged]
  ----------------------------------------------------------------------------
  Term symbol:  2 (-) A                                     R^2 =  1.19150e-13

  Total energy:                                           -248.4188937856 a.u.
  Excitation energy:                                             405.920151 eV

  Osc. strength:                                                      0.021622
  Trans. dip. moment [a.u.]:           [  -0.046628,   -0.000000,    0.000000]
  <i|r^2|0> [a.u.]:                    [  -0.000002,   -0.000000,   -0.000000]

  V1^2 = 0.8737, V2^2 = 0.1263

  Important amplitudes:
     core i     occ j      vir a      vir b          v   
    ------------------------------------------------------
     1 (A) B              22 (A) B                 0.9280
     1 (A) B              43 (A) B                -0.0773
    ------------------------------------------------------
  ----------------------------------------------------------------------------


  Excited state  2 (A)                                             [converged]
  ----------------------------------------------------------------------------
  Term symbol:  3 (-) A                                     R^2 =  3.35056e-13

  Total energy:                                           -248.3870559026 a.u.
  Excitation energy:                                             406.786504 eV

  Osc. strength:                                                      0.000000
  Trans. dip. moment [a.u.]:           [   0.000000,   -0.000163,    0.000000]
  <i|r^2|0> [a.u.]:                    [   0.000000,    0.000000,    0.000000]

  V1^2 = 0.0000, V2^2 = 1.0000

  Important amplitudes:
     core i     occ j      vir a      vir b          v   
    ------------------------------------------------------
     1 (A) A   21 (A) B   22 (A) A   22 (A) B      0.5421
     1 (A) B   21 (A) B   22 (A) B   23 (A) B      0.4088
    ------------------------------------------------------
  ----------------------------------------------------------------------------


  Excited state  3 (A)                                             [converged]
  ----------------------------------------------------------------------------
  Term symbol:  4 (-) A                                     R^2 =  2.91810e-13

  Total energy:                                           -248.3655772646 a.u.
  Excitation energy:                                             407.370968 eV

  Osc. strength:                                                      0.000000
  Trans. dip. moment [a.u.]:           [   0.000000,    0.000001,   -0.000000]
  <i|r^2|0> [a.u.]:                    [   0.000000,    0.000000,    0.000000]

  V1^2 = 0.0001, V2^2 = 0.9999

  Important amplitudes:
     core i     occ j      vir a      vir b          v   
    ------------------------------------------------------
     1 (A) B   21 (A) B   22 (A) B   23 (A) B      0.5453
     1 (A) A   21 (A) B   22 (A) A   22 (A) B     -0.4094
    ------------------------------------------------------
  ----------------------------------------------------------------------------


  Excited state  4 (A)                                             [converged]
  ----------------------------------------------------------------------------
  Term symbol:  5 (-) A                                     R^2 =  3.17097e-13

  Total energy:                                           -248.2853563163 a.u.
  Excitation energy:                                             409.553891 eV

  Osc. strength:                                                      0.000000
  Trans. dip. moment [a.u.]:           [   0.000000,   -0.000000,    0.000000]
  <i|r^2|0> [a.u.]:                    [   0.000000,    0.000000,   -0.000000]

  V1^2 = 0.8499, V2^2 = 0.1501

  Important amplitudes:
     core i     occ j      vir a      vir b          v   
    ------------------------------------------------------
     1 (A) B              23 (A) B                -0.8646
     1 (A) A              22 (A) A                 0.2843
    ------------------------------------------------------
  ----------------------------------------------------------------------------


  Excited state  5 (A)                                             [converged]
  ----------------------------------------------------------------------------
  Term symbol:  6 (-) A                                     R^2 =  2.55906e-13

  Total energy:                                           -248.2704087551 a.u.
  Excitation energy:                                             409.960634 eV

  Osc. strength:                                                      0.000000
  Trans. dip. moment [a.u.]:           [  -0.000000,   -0.000000,    0.000000]
  <i|r^2|0> [a.u.]:                    [   0.000000,    0.000000,    0.000000]

  V1^2 = 0.0002, V2^2 = 0.9998

  Important amplitudes:
     core i     occ j      vir a      vir b          v   
    ------------------------------------------------------
     1 (A) B   21 (A) A   22 (A) A   22 (A) B      0.6059
     1 (A) B   21 (A) B   22 (A) B   26 (A) B      0.2499
    ------------------------------------------------------
  ----------------------------------------------------------------------------


  Excited state  6 (A)                                             [converged]
  ----------------------------------------------------------------------------
  Term symbol:  7 (-) A                                     R^2 =  2.50693e-13

  Total energy:                                           -248.2452565138 a.u.
  Excitation energy:                                             410.645062 eV

  Osc. strength:                                                      0.000000
  Trans. dip. moment [a.u.]:           [   0.000000,   -0.000000,    0.000001]
  <i|r^2|0> [a.u.]:                    [   0.000000,   -0.000000,   -0.000000]

  V1^2 = 0.8360, V2^2 = 0.1640

  Important amplitudes:
     core i     occ j      vir a      vir b          v   
    ------------------------------------------------------
     1 (A) A              22 (A) A                 0.8608
     1 (A) B              23 (A) B                 0.2916
    ------------------------------------------------------
  ----------------------------------------------------------------------------


  Excited state  7 (A)                                             [converged]
  ----------------------------------------------------------------------------
  Term symbol:  8 (-) A                                     R^2 =  4.18033e-13

  Total energy:                                           -248.2042494584 a.u.
  Excitation energy:                                             411.760921 eV

  Osc. strength:                                                      0.000010
  Trans. dip. moment [a.u.]:           [  -0.000990,   -0.000000,    0.000000]
  <i|r^2|0> [a.u.]:                    [  -0.000000,   -0.000000,   -0.000000]

  V1^2 = 0.0004, V2^2 = 0.9996

  Important amplitudes:
     core i     occ j      vir a      vir b          v   
    ------------------------------------------------------
     1 (A) A   21 (A) B   23 (A) A   22 (A) B     -0.6651
     1 (A) A   21 (A) B   23 (A) A   43 (A) B      0.1129
    ------------------------------------------------------
  ----------------------------------------------------------------------------


  Excited state  8 (A)                                             [converged]
  ----------------------------------------------------------------------------
  Term symbol:  9 (-) A                                     R^2 =  4.03218e-13

  Total energy:                                           -248.1910157934 a.u.
  Excitation energy:                                             412.121027 eV

  Osc. strength:                                                      0.000000
  Trans. dip. moment [a.u.]:           [  -0.000000,    0.000000,    0.000000]
  <i|r^2|0> [a.u.]:                    [  -0.000000,    0.000000,   -0.000000]

  V1^2 = 0.1229, V2^2 = 0.8771

  Important amplitudes:
     core i     occ j      vir a      vir b          v   
    ------------------------------------------------------
     1 (A) A   21 (A) B   22 (A) A   23 (A) B      0.6151
     1 (A) A              23 (A) A                 0.3473
    ------------------------------------------------------
  ----------------------------------------------------------------------------


  Excited state  9 (A)                                             [converged]
  ----------------------------------------------------------------------------
  Term symbol:  10 (-) A                                    R^2 =  3.57586e-13

  Total energy:                                           -248.1824503979 a.u.
  Excitation energy:                                             412.354103 eV

  Osc. strength:                                                      0.000000
  Trans. dip. moment [a.u.]:           [   0.000000,   -0.000000,   -0.000000]
  <i|r^2|0> [a.u.]:                    [   0.000000,    0.000000,   -0.000000]

  V1^2 = 0.0002, V2^2 = 0.9998

  Important amplitudes:
     core i     occ j      vir a      vir b          v   
    ------------------------------------------------------
     1 (A) A   19 (A) B   22 (A) A   22 (A) B      0.5655
     1 (A) A   21 (A) B   29 (A) A   22 (A) B     -0.3573
    ------------------------------------------------------
  ----------------------------------------------------------------------------


  Excited state 10 (A)                                             [converged]
  ----------------------------------------------------------------------------
  Term symbol:  11 (-) A                                    R^2 =  4.36508e-13

  Total energy:                                           -248.1389378577 a.u.
  Excitation energy:                                             413.538140 eV

  Osc. strength:                                                      0.000000
  Trans. dip. moment [a.u.]:           [  -0.000000,   -0.000000,   -0.000000]
  <i|r^2|0> [a.u.]:                    [   0.000000,    0.000000,   -0.000000]

  V1^2 = 0.6564, V2^2 = 0.3436

  Important amplitudes:
     core i     occ j      vir a      vir b          v   
    ------------------------------------------------------
     1 (A) A              23 (A) A                 0.8056
     1 (A) A   21 (A) B   22 (A) A   23 (A) B     -0.2649
    ------------------------------------------------------
  ----------------------------------------------------------------------------


  Excited state 11 (A)                                             [converged]
  ----------------------------------------------------------------------------
  Term symbol:  12 (-) A                                    R^2 =  3.58216e-13

  Total energy:                                           -248.1356883265 a.u.
  Excitation energy:                                             413.626564 eV

  Osc. strength:                                                      0.012058
  Trans. dip. moment [a.u.]:           [   0.000000,   -0.000000,    0.034495]
  <i|r^2|0> [a.u.]:                    [  -0.000000,    0.000000,    0.000000]

  V1^2 = 0.6216, V2^2 = 0.3784

  Important amplitudes:
     core i     occ j      vir a      vir b          v   
    ------------------------------------------------------
     1 (A) B              26 (A) B                -0.7699
     1 (A) B   20 (A) B   22 (A) B   23 (A) B     -0.3398
    ------------------------------------------------------
  ----------------------------------------------------------------------------


  Excited state 12 (A)                                             [converged]
  ----------------------------------------------------------------------------
  Term symbol:  13 (-) A                                    R^2 =  9.72337e-13

  Total energy:                                           -248.1182345595 a.u.
  Excitation energy:                                             414.101505 eV

  Osc. strength:                                                      0.000000
  Trans. dip. moment [a.u.]:           [   0.000000,    0.000000,    0.000000]
  <i|r^2|0> [a.u.]:                    [  -0.000000,    0.000000,    0.000000]

  V1^2 = 0.0116, V2^2 = 0.9884

  Important amplitudes:
     core i     occ j      vir a      vir b          v   
    ------------------------------------------------------
     1 (A) B   21 (A) B   22 (A) B   26 (A) B      0.5550
     1 (A) B   21 (A) A   22 (A) A   22 (A) B     -0.2925
    ------------------------------------------------------
  ----------------------------------------------------------------------------


  Excited state 13 (A)                                             [converged]
  ----------------------------------------------------------------------------
  Term symbol:  14 (-) A                                    R^2 =  4.87229e-08

  Total energy:                                           -248.0969934814 a.u.
  Excitation energy:                                             414.679504 eV

  Osc. strength:                                                      0.000000
  Trans. dip. moment [a.u.]:           [   0.000000,   -0.000000,   -0.000000]
  <i|r^2|0> [a.u.]:                    [  -0.000000,    0.000000,   -0.000000]

  V1^2 = 0.0001, V2^2 = 0.9999

  Important amplitudes:
     core i     occ j      vir a      vir b          v   
    ------------------------------------------------------
     1 (A) B   21 (A) A   22 (A) A   23 (A) B     -0.5245
     1 (A) B   21 (A) B   23 (A) B   26 (A) B     -0.4178
    ------------------------------------------------------
  ----------------------------------------------------------------------------


  Excited state 14 (A)                                             [converged]
  ----------------------------------------------------------------------------
  Term symbol:  15 (-) A                                    R^2 =  1.26890e-12

  Total energy:                                           -248.0934701016 a.u.
  Excitation energy:                                             414.775380 eV

  Osc. strength:                                                      0.000000
  Trans. dip. moment [a.u.]:           [   0.000000,   -0.000000,   -0.000000]
  <i|r^2|0> [a.u.]:                    [  -0.000000,    0.000000,   -0.000000]

  V1^2 = 0.0015, V2^2 = 0.9985

  Important amplitudes:
     core i     occ j      vir a      vir b          v   
    ------------------------------------------------------
     1 (A) B   19 (A) B   22 (A) B   23 (A) B     -0.6087
     1 (A) A   21 (A) B   29 (A) A   22 (A) B     -0.0981
    ------------------------------------------------------
  ----------------------------------------------------------------------------


  Excited state 15 (A)                                             [converged]
  ----------------------------------------------------------------------------
  Term symbol:  16 (-) A                                    R^2 =  1.81252e-10

  Total energy:                                           -248.0902228692 a.u.
  Excitation energy:                                             414.863742 eV

  Osc. strength:                                                      0.000000
  Trans. dip. moment [a.u.]:           [  -0.000000,   -0.000000,   -0.000000]
  <i|r^2|0> [a.u.]:                    [   0.000780,    0.000246,    0.000215]

  V1^2 = 0.0011, V2^2 = 0.9989

  Important amplitudes:
     core i     occ j      vir a      vir b          v   
    ------------------------------------------------------
     1 (A) B   18 (A) B   22 (A) B   23 (A) B      0.4352
     1 (A) A   18 (A) B   22 (A) A   22 (A) B      0.3135
    ------------------------------------------------------
  ----------------------------------------------------------------------------


  Excited state 16 (A)                                             [converged]
  ----------------------------------------------------------------------------
  Term symbol:  17 (-) A                                    R^2 =  1.96026e-09

  Total energy:                                           -248.0780303528 a.u.
  Excitation energy:                                             415.195517 eV

  Osc. strength:                                                      0.000000
  Trans. dip. moment [a.u.]:           [   0.000000,   -0.000000,    0.000000]
  <i|r^2|0> [a.u.]:                    [  -0.000000,   -0.000000,    0.000000]

  V1^2 = 0.0003, V2^2 = 0.9997

  Important amplitudes:
     core i     occ j      vir a      vir b          v   
    ------------------------------------------------------
     1 (A) B   21 (A) B   22 (A) B   29 (A) B      0.5228
     1 (A) A   21 (A) B   28 (A) A   22 (A) B      0.3718
    ------------------------------------------------------
  ----------------------------------------------------------------------------


  Excited state 17 (A)                                             [converged]
  ----------------------------------------------------------------------------
  Term symbol:  18 (-) A                                    R^2 =  7.47290e-13

  Total energy:                                           -248.0683253573 a.u.
  Excitation energy:                                             415.459603 eV

  Osc. strength:                                                      0.000000
  Trans. dip. moment [a.u.]:           [   0.000000,    0.000000,   -0.000002]
  <i|r^2|0> [a.u.]:                    [  -0.000000,   -0.000000,    0.000000]

  V1^2 = 0.0055, V2^2 = 0.9945

  Important amplitudes:
     core i     occ j      vir a      vir b          v   
    ------------------------------------------------------
     1 (A) B   20 (A) A   22 (A) A   22 (A) B      0.6595
     1 (A) B   20 (A) A   46 (A) A   22 (A) B     -0.1145
    ------------------------------------------------------
  ----------------------------------------------------------------------------


  Excited state 18 (A)                                             [converged]
  ----------------------------------------------------------------------------
  Term symbol:  19 (-) A                                    R^2 =  6.21922e-09

  Total energy:                                           -248.0649302304 a.u.
  Excitation energy:                                             415.551990 eV

  Osc. strength:                                                      0.013408
  Trans. dip. moment [a.u.]:           [   0.000000,   -0.000000,   -0.036290]
  <i|r^2|0> [a.u.]:                    [  -0.000000,    0.000000,    0.000000]

  V1^2 = 0.5444, V2^2 = 0.4556

  Important amplitudes:
     core i     occ j      vir a      vir b          v   
    ------------------------------------------------------
     1 (A) A              29 (A) A                -0.7116
     1 (A) A   20 (A) B   22 (A) A   22 (A) B     -0.3655
    ------------------------------------------------------
  ----------------------------------------------------------------------------


  Excited state 19 (A)                                             [converged]
  ----------------------------------------------------------------------------
  Term symbol:  20 (-) A                                    R^2 =  4.76280e-10

  Total energy:                                           -248.0638273843 a.u.
  Excitation energy:                                             415.581999 eV

  Osc. strength:                                                      0.000000
  Trans. dip. moment [a.u.]:           [   0.000000,    0.000000,    0.000000]
  <i|r^2|0> [a.u.]:                    [  -0.002266,   -0.000076,   -0.000012]

  V1^2 = 0.0011, V2^2 = 0.9989

  Important amplitudes:
     core i     occ j      vir a      vir b          v   
    ------------------------------------------------------
     1 (A) A   18 (A) B   22 (A) A   22 (A) B      0.5018
     1 (A) B   21 (A) A   23 (A) A   22 (A) B     -0.2511
    ------------------------------------------------------
  ----------------------------------------------------------------------------


  Excited state 20 (A)                                             [converged]
  ----------------------------------------------------------------------------
  Term symbol:  21 (-) A                                    R^2 =  6.54340e-07

  Total energy:                                           -248.0492805885 a.u.
  Excitation energy:                                             415.977838 eV

  Osc. strength:                                                      0.000000
  Trans. dip. moment [a.u.]:           [   0.000000,   -0.000000,    0.000000]
  <i|r^2|0> [a.u.]:                    [  -0.000000,    0.000000,    0.000000]

  V1^2 = 0.0001, V2^2 = 0.9999

  Important amplitudes:
     core i     occ j      vir a      vir b          v   
    ------------------------------------------------------
     1 (A) A   21 (A) B   28 (A) A   22 (A) B     -0.4754
     1 (A) B   21 (A) B   22 (A) B   29 (A) B      0.3457
    ------------------------------------------------------
  ----------------------------------------------------------------------------


--------------------------------------------------------------------------------
  Time of ADC calculation:  CPU 17040.69 s  wall 9510.49 s
================================================================================
 
 --------------------------------------------------------------
 
                    Orbital Energies (a.u.)
 --------------------------------------------------------------
 
 Alpha MOs
 -- Occupied --
-15.673 -15.673 -11.259 -11.259 -11.258 -11.258  -1.323  -1.254
 -1.034  -0.915  -0.879  -0.737  -0.713  -0.665  -0.600  -0.592
 -0.582  -0.552  -0.495  -0.476  -0.293
 -- Virtual --
  0.058   0.185   0.262   0.286   0.310   0.324   0.343   0.345
  0.460   0.490   0.501   0.629   0.679   0.705   0.736   0.767
  0.809   0.827   0.830   0.834   0.869   0.895   0.918   0.962
  1.019   1.032   1.044   1.087   1.096   1.101   1.113   1.185
  1.189   1.252   1.287   1.331   1.346   1.478   1.500   1.530
  1.632   1.738   1.756   1.757   1.770   1.815   1.897   2.008
  2.082   2.124   2.157   2.301   2.348   2.440   2.500   2.520
  2.528   2.530   2.621   2.638   2.735   2.798   2.892   2.907
  3.010   3.050   3.077   3.089   3.143   3.406   3.719   4.234
  4.508   4.559   4.569   4.751   4.909
 
 Beta MOs
 -- Occupied --
-15.646 -15.646 -11.269 -11.269 -11.268 -11.268  -1.295  -1.203
 -1.055  -0.897  -0.870  -0.698  -0.681  -0.663  -0.595  -0.581
 -0.541  -0.454  -0.429  -0.365  -0.179
 -- Virtual --
 -0.092   0.104   0.262   0.283   0.284   0.305   0.313   0.347
  0.469   0.480   0.503   0.615   0.667   0.720   0.723   0.740
  0.782   0.819   0.824   0.833   0.855   0.876   0.919   0.976
  1.065   1.065   1.071   1.080   1.093   1.112   1.133   1.182
  1.198   1.251   1.271   1.341   1.355   1.479   1.485   1.550
  1.622   1.738   1.751   1.756   1.777   1.778   1.931   2.023
  2.069   2.145   2.166   2.297   2.359   2.410   2.474   2.515
  2.529   2.548   2.593   2.647   2.734   2.821   2.873   2.914
  3.030   3.042   3.079   3.093   3.168   3.421   3.730   4.263
  4.497   4.549   4.588   4.739   4.908
 --------------------------------------------------------------
 
          Ground-State Mulliken Net Atomic Charges

     Atom                 Charge (a.u.)    Spin (a.u.)
  --------------------------------------------------------
      1 C                    -0.070621      -0.468966
      2 C                    -0.070621      -0.468966
      3 N                    -0.317767       0.785655
      4 N                    -0.317767       0.785655
      5 C                    -0.070621      -0.468966
      6 C                    -0.070621      -0.468966
      7 H                     0.229504       0.076139
      8 H                     0.229504       0.076139
      9 H                     0.229504       0.076139
     10 H                     0.229504       0.076139
  --------------------------------------------------------
  Sum of atomic charges =     0.000000
  Sum of spin   charges =     0.000000

 -----------------------------------------------------------------
                    Cartesian Multipole Moments
 -----------------------------------------------------------------
    Charge (ESU x 10^10)
                 0.0000
    Dipole Moment (Debye)
         X       0.0000      Y       0.0000      Z       0.0000
       Tot       0.0000
    Quadrupole Moments (Debye-Ang)
        XX     -36.5129     XY       0.0000     YY     -27.8190
        XZ       0.0000     YZ       0.0000     ZZ     -37.9448
    Octopole Moments (Debye-Ang^2)
       XXX       0.0000    XXY       0.0000    XYY       0.0000
       YYY       0.0000    XXZ       0.0000    XYZ       0.0000
       YYZ       0.0000    XZZ       0.0000    YZZ       0.0000
       ZZZ       0.0000
    Hexadecapole Moments (Debye-Ang^3)
      XXXX    -265.5332   XXXY       0.0000   XXYY     -70.5242
      XYYY       0.0000   YYYY    -224.5764   XXXZ       0.0000
      XXYZ       0.0000   XYYZ       0.0000   YYYZ       0.0000
      XXZZ     -51.7223   XYZZ       0.0000   YYZZ     -56.8845
      XZZZ       0.0000   YZZZ       0.0000   ZZZZ     -38.5543
 -----------------------------------------------------------------
Archival summary:
1\1\tp-linux1\SP\HF\6-31G*\244\thomas\MonJan3016:40:052017MonJan3016:40:052017\0\\#,HF,6-31G*,\\0,1\N\C,1,1.34606\H,2,1.0834,1,116.808\C,1,1.34606,2,115.185,3,-180,0\H,4,1.0834,1,116.808,2,-180,0\C,2,1.39225,1,122.408,3,-180,0\H,6,1.0834,2,120.785,1,-180,0\N,6,1.34606,2,122.408,1,0,0\C,8,1.34606,6,115.185,2,0,0\H,9,1.0834,8,116.808,6,-180,0\\HF=-262.452706\\@

 Total job time:  9516.91s(wall), 17056.48s(cpu) 
 Mon Jan 30 16:40:05 2017

        *************************************************************
        *                                                           *
        *  Thank you very much for using Q-Chem.  Have a nice day.  *
        *                                                           *
        *************************************************************


0 sent ACK to 0 
now end server 0 ... 
cleanup process ... done
remove work dirs /scratch/qchem/qchem3330.0 -- /scratch/qchem/qchem3330.0
rm -rf /scratch/qchem/qchem3330.0
rm -rf /scratch/qchem/qchem3330
