You are running Q-Chem version: 4.3

#
# job setting
#
local host:  tp-linux1
current dir: /home/thomas/CODE_displace_coords/qchem
input file:  cvs-adc.inp
output file: 
nprocs     : 1
nthreads   : 8
#
# qchem installation setting
#
QC:          /mnt/software/qchem
QCAUX:       /mnt/software/qchem/qcaux
QCPROG:      /mnt/software/qchem/exe/qcprog.exe
QCPROG_S:    /mnt/software/qchem/exe/qcprog.exe_s
PARALLEL:    -DPARALLEL
QCMPI:       mpich
#
# qchem directory setting
#
qcrun:       qchem19339
QCSCRATCH:   /scratch/qchem
QCLOCALSCR:  
QCTMPDIR:    /scratch/qchem
QCFILEPREF:  /scratch/qchem/qchem19339
QCSAVEDIR:   
workdirs:    /scratch/qchem/qchem19339
workdir0:    /scratch/qchem/qchem19339
partmpdirs =  
#
# parallel setting
#
QCRSH:           ssh
QCMPI:           mpich
QCMPIRUN:        /mnt/software/qchem/bin/mpi/mpirun_qchem
QCMACHINEFILE:   /mnt/software/qchem/bin/mpi/machines
127.0.1.1 32

#
# env setting
#
exported envs:   QC QCAUX QCSCRATCH QCRUNNAME QCFILEPREF QCPROG QCPROG_S GUIFILE

Running Job 1 of 3 cvs-adc.inp
qchem cvs-adc.inp_19339.0 /scratch/qchem/qchem19339/ 1
/mnt/software/qchem/bin/mpi/mpirun_qchem -machinefile /mnt/software/qchem/bin/mpi/machines -np 1 /mnt/software/qchem/exe/qcprog.exe cvs-adc.inp_19339.0 /scratch/qchem/qchem19339/

Process 0 of 1 is on tp-linux1 - thread support 0
initial socket setup ...start
initial socket setup ...done 
now start server 0 ... 

cmd = ssh tp-linux1 /mnt/software/qchem/bin/get_hostid 2060225502 > /scratch/qchem/qchem19339/lic.dat
                  Welcome to Q-Chem
     A Quantum Leap Into The Future Of Chemistry


 Q-Chem 4.3, Q-Chem, Inc., Pleasanton, CA (2015)

 Y. Shao,  Z. Gan,  E. Epifanovsky,  A. T. B. Gilbert,  M. Wormit,  
 J. Kussmann,  A. W. Lange,  A. Behn,  J. Deng,  X. Feng,  D. Ghosh,  
 M. Goldey,  P. R. Horn,  L. D. Jacobson,  I. Kaliman,  R. Z. Khaliullin,  
 T. Kus,  A. Landau,  J. Liu,  E. I. Proynov,  Y. M. Rhee,  R. M. Richard,  
 M. A. Rohrdanz,  R. P. Steele,  E. J. Sundstrom,  H. L. Woodcock III,  
 P. M. Zimmerman,  D. Zuev,  B. Albrecht,  E. Alguire,  B. Austin,  
 S. A. Baeppler,  G. J. O. Beran,  Y. A. Bernard,  E. Berquist,  
 K. Brandhorst,  K. B. Bravaya,  S. T. Brown,  D. Casanova,  C.-M. Chang,  
 Y. Chen,  S. H. Chien,  K. D. Closser,  D. L. Crittenden,  M. Diedenhofen,  
 R. A. DiStasio Jr.,  H. Do,  A. D. Dutoi,  R. G. Edgar,  P.-T. Fang,  
 S. Fatehi,  Q. Feng,  L. Fusti-Molnar,  A. Ghysels,  
 A. Golubeva-Zadorozhnaya,  J. Gomes,  A. Gunina,  M. W. D. Hanson-Heine,  
 P. H. P. Harbach,  A. W. Hauser,  E. G. Hohenstein,  Z. C. Holden,  K. Hui,  
 T.-C. Jagau,  H. Ji,  B. Kaduk,  K. Khistyaev,  Jaehoon Kim,  Jihan Kim,  
 R. A. King,  P. Klunzinger,  D. Kosenkov,  T. Kowalczyk,  C. M. Krauter,  
 K. U. Lao,  A. Laurent,  K. V. Lawler,  S. Lehtola,  S. V. Levchenko,  
 C. Y. Lin,  Y.-S. Lin,  F. Liu,  E. Livshits,  R. C. Lochan,  A. Luenser,  
 P. Manohar,  S. F. Manzer,  S.-P. Mao,  N. Mardirossian,  A. V. Marenich,  
 L. A. Martinez-Martinez,  S. A. Maurer,  N. J. Mayhall,  K. Nanda,  
 C. M. Oana,  R. Olivares-Amaya,  D. P. O'Neill,  J. A. Parkhill,  
 T. M. Perrine,  R. Peverati,  P. A. Pieniazek,  F. Plasser,  A. Prociuk,  
 D. R. Rehn,  E. Rosta,  N. J. Russ,  N. Sergueev,  S. M. Sharada,  
 S. Sharma,  D. W. Small,  A. Sodt,  T. Stauch,  T. Stein,  D. Stuck,  
 Y.-C. Su,  A. J. W. Thom,  T. Tsuchimochi,  L. Vogt,  O. Vydrov,  T. Wang,  
 M. A. Watson,  J. Wenzel,  A. White,  C. F. Williams,  V. Vanovschi,  
 S. Yeganeh,  S. R. Yost,  Z.-Q. You,  I. Y. Zhang,  X. Zhang,  Y. Zhao,  
 B. R. Brooks,  G. K. L. Chan,  D. M. Chipman,  C. J. Cramer,  
 W. A. Goddard III,  M. S. Gordon,  W. J. Hehre,  A. Klamt,  
 H. F. Schaefer III,  M. W. Schmidt,  C. D. Sherrill,  D. G. Truhlar,  
 A. Warshel,  X. Xu,  A. Aspuru-Guzik,  R. Baer,  A. T. Bell,  N. A. Besley,  
 J.-D. Chai,  A. Dreuw,  B. D. Dunietz,  T. R. Furlani,  S. R. Gwaltney,  
 C.-P. Hsu,  Y. Jung,  J. Kong,  D. S. Lambrecht,  W. Liang,  C. Ochsenfeld,  
 V. A. Rassolov,  L. V. Slipchenko,  J. E. Subotnik,  T. Van Voorhis,  
 J. M. Herbert,  A. I. Krylov,  P. M. W. Gill,  M. Head-Gordon

 Contributors to earlier versions of Q-Chem not listed above: 
 R. D. Adamson,  J. Baker,  E. F. C. Byrd,  A. K. Chakraborty,  C.-L. Cheng,  
 H. Dachsel,  R. J. Doerksen,  G. Hawkins,  A. Heyden,  S. Hirata,  
 G. Kedziora,  F. J. Keil,  C. Kelley,  P. P. Korambath,  W. Kurlancheek,  
 A. M. Lee,  M. S. Lee,  D. Liotard,  I. Lotan,  P. E. Maslen,  N. Nair,  
 D. Neuhauser,  R. Olson,  B. Peters,  J. Ritchie,  N. E. Schultz,  
 N. Shenvi,  A. C. Simmonett,  K. S. Thanthiriwatte,  Q. Wu,  W. Zhang

 Please cite Q-Chem as follows:
 Y. Shao et al., Mol. Phys. 113, 184-215 (2015)
 DOI: 10.1080/00268976.2014.952696

 Q-Chem 4.3.0 for Intel X86 Linux

 Parts of Q-Chem use Armadillo 5.200.1 (Boston Tea Smuggler).
 http://arma.sourceforge.net/

 Q-Chem begins on Wed Jan 25 15:17:16 2017  

Host: 
0

     Scratch files written to /scratch/qchem/qchem19339//
 Nov1815 1189b_ 19540  19532 5443   
 Parallel job on  1  processors
Processing $rem in /mnt/software/qchem/config/preferences.
 MEM_TOTAL  2000 

Checking the input file for inconsistencies... 	...done.

--------------------------------------------------------------
User input:
--------------------------------------------------------------
$comment
XAS calculation for the 2b valence excited for water using cvs-adc(2)-x + 6-311+G* basis set
job 1 - determination of HF orbitals
$end

$molecule
0 1
C    -0.696126    -1.136419     0.000000
C     0.696126    -1.136419     0.000000
N    -1.417532     0.000000     0.000000
N     1.417532     0.000000     0.000000
C     0.696126     1.136419     0.000000
C    -0.696126     1.136419     0.000000
H     1.250625     2.067160     0.000000
H    -1.250625     2.067160     0.000000
H     1.250625    -2.067160     0.000000
H    -1.250625    -2.067160     0.000000
$end

$rem
jobtype      sp
exchange     hf
basis        6-31G*
unrestricted true
$end

--------------------------------------------------------------
 ----------------------------------------------------------------
             Standard Nuclear Orientation (Angstroms)
    I     Atom           X                Y                Z
 ----------------------------------------------------------------
    1      C       1.1364190000    -0.6961260000     0.0000000000
    2      C       1.1364190000     0.6961260000     0.0000000000
    3      N       0.0000000000    -1.4175320000     0.0000000000
    4      N       0.0000000000     1.4175320000     0.0000000000
    5      C      -1.1364190000     0.6961260000     0.0000000000
    6      C      -1.1364190000    -0.6961260000     0.0000000000
    7      H      -2.0671600000     1.2506250000     0.0000000000
    8      H      -2.0671600000    -1.2506250000     0.0000000000
    9      H       2.0671600000     1.2506250000     0.0000000000
   10      H       2.0671600000    -1.2506250000     0.0000000000
 ----------------------------------------------------------------
 Molecular Point Group                 D2h   NOp =  8
 Largest Abelian Subgroup              D2h   NOp =  8
 Nuclear Repulsion Energy =   207.9974042823 hartrees
 There are       21 alpha and       21 beta electrons
 Requested basis set is 6-31G(d)
 There are 32 shells and 98 basis functions

 Total QAlloc Memory Limit   2000 MB
 Mega-Array Size        61 MB
 MEM_STATIC part        62 MB

                       Distance Matrix (Angstroms)
             C (  1)   C (  2)   N (  3)   N (  4)   C (  5)   C (  6)
   C (  2)  1.392252
   N (  3)  1.346059  2.399791
   N (  4)  2.399791  1.346059  2.835064
   C (  5)  2.665363  2.272838  2.399791  1.346059
   C (  6)  2.272838  2.665363  1.346059  2.399791  1.392252
   H (  7)  3.748701  3.251213  3.375235  2.073887  1.083396  2.157804
   H (  8)  3.251213  3.748701  2.073887  3.375235  2.157804  1.083396
   H (  9)  2.157804  1.083396  3.375235  2.073887  3.251213  3.748701
   H ( 10)  1.083396  2.157804  2.073887  3.375235  3.748701  3.251213
             H (  7)   H (  8)   H (  9)
   H (  8)  2.501250
   H (  9)  4.134320  4.832065
   H ( 10)  4.832065  4.134320  2.501250
 
 tim1(1): 
  0.000000000000000E+000
 tim1(2): 
  0.000000000000000E+000
 A cutoff of  1.0D-08 yielded    495 shell pairs
 There are      4944 function pairs
 
 -------------------------------------------------------
 OpenMP Integral Computing Module                       
 Release: version 1.0, May 2013, Q-Chem Inc. Pittsburgh 
 -------------------------------------------------------
 Integral Job Info:
 Integral job number is                      11
 Integral operator is                         1
 short-range coefficients                     0
 long-range coefficients              100000000
 Omega coefficients                           0
 if combine SR and LR in K                    0
 Integral screening is                        0
 Integral computing path is                   2
 max size of driver memory is            800000
 size of driver memory is                593474
 size of scratch memory is              2260544
 max col of scratch BK array               1296
 max len of scratch array in speh3          155
 max len of scratch index in speh4           18
 max int batch size is                      520
 min int batch size is                       52
 fixed nKL is                                52
 max L of basis functions is                  2
 order of int derivative is                   0
 number of shells is                         32
 number of basis is                          98
 number of cartesian basis is                98
 number of contracted shell pairs           495
 number of primitive shell pairs           2101
 maxK2 (contraction) of shell pair           36
 max number of K2 of shell pair               1
 max number of CS2 of shell pair             52
 max number of PS2 of shell pair            312
 mem total for path MDJ                   27448
 -------------------------------------------------------
 Smallest overlap matrix eigenvalue = 1.40E-03

 Scale SEOQF with 1.000000e-01/1.000000e-01/1.000000e+00

 Standard Electronic Orientation quadrupole field applied
 Nucleus-field energy     =     0.0000000050 hartrees
 Guess from superposition of atomic densities
 Warning:  Energy on first SCF cycle will be non-variational
 An unrestricted Hartree-Fock SCF calculation will be
 performed using Pulay DIIS extrapolation
 SCF converges when DIIS error is below 1.0E-05
 using 8 threads for integral computing 
 ---------------------------------------
  Cycle       Energy         DIIS Error
 ---------------------------------------
    1    -264.8351357250      8.71E-02
    2    -262.6061638532      6.65E-03
    3    -262.6694980670      2.72E-03
    4    -262.6774662875      1.10E-03
    5    -262.6791952922      2.02E-04
    6    -262.6792801343      7.07E-05
    7    -262.6792974922      2.50E-05
    8    -262.6792995593      3.90E-06 Convergence criterion met
 ---------------------------------------
 <S^2> = 0.0000
 SCF time:  CPU 7.57 s  wall 1.91 s
 SCF   energy in the final basis set = -262.6792995593
 Total energy in the final basis set = -262.6792995593
 
 --------------------------------------------------------------
             Orbital Energies (a.u.) and Symmetries
 --------------------------------------------------------------
 
 Alpha MOs, Unrestricted
 -- Occupied --                  
-15.600 -15.600 -11.287 -11.287 -11.286 -11.286  -1.301  -1.213
  1 B2u   1 Ag    1 B3u   2 Ag    1 B1g   2 B2u   3 Ag    3 B2u                
 -1.052  -0.902  -0.883  -0.724  -0.698  -0.677  -0.610  -0.568
  2 B3u   4 Ag    2 B1g   5 Ag    3 B3u   4 B2u   4 B3u   1 B1u                
 -0.547  -0.496  -0.428  -0.411  -0.358
  3 B1g   5 B2u   1 B3g   6 Ag    1 B2g                                        
 -- Virtual --                   
  0.091   0.127   0.256   0.278   0.303   0.316   0.336   0.345
  2 B1u   1 Au    7 Ag    5 B3u   6 B2u   4 B1g   2 B3g   8 Ag                 
  0.467   0.493   0.499   0.616   0.683   0.708   0.724   0.733
  6 B3u   5 B1g   7 B2u   8 B2u   6 B1g   7 B3u   9 Ag    3 B1u                
  0.792   0.817   0.823   0.840   0.852   0.881   0.907   0.959
  2 B2g   8 B3u  10 Ag    3 B3g  11 Ag    2 Au    9 B2u   7 B1g                
  1.066   1.067   1.073   1.073   1.086   1.106   1.138   1.174
 10 B2u   4 B1u   8 B1g  12 Ag    9 B3u  11 B2u   4 B3g  13 Ag                 
  1.208   1.242   1.270   1.345   1.354   1.480   1.492   1.549
 10 B3u  12 B2u   9 B1g  13 B2u  10 B1g  11 B3u   3 B2g  14 Ag                 
  1.628   1.735   1.748   1.771   1.782   1.783   1.930   2.021
  5 B1u  11 B1g   6 B1u   3 Au    5 B3g   4 B2g  14 B2u  15 Ag                 
  2.072   2.148   2.162   2.291   2.350   2.416   2.473   2.520
 16 Ag   15 B2u  12 B3u  13 B3u  17 Ag    4 Au   14 B3u  16 B2u                
  2.531   2.549   2.594   2.654   2.737   2.823   2.874   2.915
 12 B1g   7 B1u   6 B3g   5 B2g   7 B3g  18 Ag   13 B1g  17 B2u                
  3.036   3.045   3.072   3.087   3.180   3.426   3.732   4.284
 19 Ag    5 Au   18 B2u  14 B1g  15 B3u  15 B1g  19 B2u  20 Ag                 
  4.486   4.541   4.602   4.729   4.907
 16 B3u  21 Ag   20 B2u  16 B1g  21 B2u                                        
 
 Beta MOs, Unrestricted
 -- Occupied --                  
-15.600 -15.600 -11.287 -11.287 -11.286 -11.286  -1.301  -1.213
  1 B2u   1 Ag    1 B3u   2 Ag    1 B1g   2 B2u   3 Ag    3 B2u                
 -1.052  -0.902  -0.883  -0.724  -0.698  -0.677  -0.610  -0.568
  2 B3u   4 Ag    2 B1g   5 Ag    3 B3u   4 B2u   4 B3u   1 B1u                
 -0.547  -0.496  -0.428  -0.411  -0.358
  3 B1g   5 B2u   1 B3g   6 Ag    1 B2g                                        
 -- Virtual --                   
  0.091   0.127   0.256   0.278   0.303   0.316   0.336   0.345
  2 B1u   1 Au    7 Ag    5 B3u   6 B2u   4 B1g   2 B3g   8 Ag                 
  0.467   0.493   0.499   0.616   0.683   0.708   0.724   0.733
  6 B3u   5 B1g   7 B2u   8 B2u   6 B1g   7 B3u   9 Ag    3 B1u                
  0.792   0.817   0.823   0.840   0.852   0.881   0.907   0.959
  2 B2g   8 B3u  10 Ag    3 B3g  11 Ag    2 Au    9 B2u   7 B1g                
  1.066   1.067   1.073   1.073   1.086   1.106   1.138   1.174
 10 B2u   4 B1u   8 B1g  12 Ag    9 B3u  11 B2u   4 B3g  13 Ag                 
  1.208   1.242   1.270   1.345   1.354   1.480   1.492   1.549
 10 B3u  12 B2u   9 B1g  13 B2u  10 B1g  11 B3u   3 B2g  14 Ag                 
  1.628   1.735   1.748   1.771   1.782   1.783   1.930   2.021
  5 B1u  11 B1g   6 B1u   3 Au    5 B3g   4 B2g  14 B2u  15 Ag                 
  2.072   2.148   2.162   2.291   2.350   2.416   2.473   2.520
 16 Ag   15 B2u  12 B3u  13 B3u  17 Ag    4 Au   14 B3u  16 B2u                
  2.531   2.549   2.594   2.654   2.737   2.823   2.874   2.915
 12 B1g   7 B1u   6 B3g   5 B2g   7 B3g  18 Ag   13 B1g  17 B2u                
  3.036   3.045   3.072   3.087   3.180   3.426   3.732   4.284
 19 Ag    5 Au   18 B2u  14 B1g  15 B3u  15 B1g  19 B2u  20 Ag                 
  4.486   4.541   4.602   4.729   4.907
 16 B3u  21 Ag   20 B2u  16 B1g  21 B2u                                        
 --------------------------------------------------------------
 
          Ground-State Mulliken Net Atomic Charges

     Atom                 Charge (a.u.)    Spin (a.u.)
  --------------------------------------------------------
      1 C                     0.014393       0.000000
      2 C                     0.014393       0.000000
      3 N                    -0.464739       0.000000
      4 N                    -0.464739       0.000000
      5 C                     0.014393       0.000000
      6 C                     0.014393       0.000000
      7 H                     0.217976       0.000000
      8 H                     0.217976       0.000000
      9 H                     0.217976       0.000000
     10 H                     0.217976       0.000000
  --------------------------------------------------------
  Sum of atomic charges =     0.000000
  Sum of spin   charges =     0.000000

 -----------------------------------------------------------------
                    Cartesian Multipole Moments
 -----------------------------------------------------------------
    Charge (ESU x 10^10)
                 0.0000
    Dipole Moment (Debye)
         X       0.0000      Y       0.0000      Z       0.0000
       Tot       0.0000
    Quadrupole Moments (Debye-Ang)
        XX     -26.0155     XY       0.0000     YY     -41.5290
        XZ       0.0000     YZ       0.0000     ZZ     -36.3330
    Octopole Moments (Debye-Ang^2)
       XXX       0.0000    XXY       0.0000    XYY       0.0000
       YYY       0.0000    XXZ       0.0000    XYZ       0.0000
       YYZ       0.0000    XZZ       0.0000    YZZ       0.0000
       ZZZ       0.0000
    Hexadecapole Moments (Debye-Ang^3)
      XXXX    -224.0920   XXXY       0.0000   XXYY     -68.8931
      XYYY       0.0000   YYYY    -298.5972   XXXZ       0.0000
      XXYZ       0.0000   XYYZ       0.0000   YYYZ       0.0000
      XXZZ     -53.2567   XYZZ       0.0000   YYZZ     -50.6969
      XZZZ       0.0000   YZZZ       0.0000   ZZZZ     -36.1049
 -----------------------------------------------------------------
Archival summary:
1\1\tp-linux1\SP\HF\6-31G*\244\thomas\WedJan2515:17:192017WedJan2515:17:192017\0\\#,HF,6-31G*,\\0,1\N\C,1,1.34606\H,2,1.0834,1,116.808\C,1,1.34606,2,115.185,3,-180,0\H,4,1.0834,1,116.808,2,-180,0\C,2,1.39225,1,122.408,3,-180,0\H,6,1.0834,2,120.785,1,-180,0\N,6,1.34606,2,122.408,1,0,0\C,8,1.34606,6,115.185,2,0,0\H,9,1.0834,8,116.808,6,180,0\\HF=-262.6793\\@

 Total job time:  2.43s(wall), 9.26s(cpu) 
 Wed Jan 25 15:17:19 2017

        *************************************************************
        *                                                           *
        *  Thank you very much for using Q-Chem.  Have a nice day.  *
        *                                                           *
        *************************************************************


0 sent ACK to 0 
now end server 0 ... 
cleanup process ... done

Running Job 2 of 3 cvs-adc.inp
qchem cvs-adc.inp_19339.1 /scratch/qchem/qchem19339/ 1
/mnt/software/qchem/bin/mpi/mpirun_qchem -machinefile /mnt/software/qchem/bin/mpi/machines -np 1 /mnt/software/qchem/exe/qcprog.exe cvs-adc.inp_19339.1 /scratch/qchem/qchem19339/

Process 0 of 1 is on tp-linux1 - thread support 0
initial socket setup ...start
initial socket setup ...done 
now start server 0 ... 

cmd = ssh tp-linux1 /mnt/software/qchem/bin/get_hostid 1614642148 > /scratch/qchem/qchem19339/lic.dat
                  Welcome to Q-Chem
     A Quantum Leap Into The Future Of Chemistry


 Q-Chem 4.3, Q-Chem, Inc., Pleasanton, CA (2015)

 Y. Shao,  Z. Gan,  E. Epifanovsky,  A. T. B. Gilbert,  M. Wormit,  
 J. Kussmann,  A. W. Lange,  A. Behn,  J. Deng,  X. Feng,  D. Ghosh,  
 M. Goldey,  P. R. Horn,  L. D. Jacobson,  I. Kaliman,  R. Z. Khaliullin,  
 T. Kus,  A. Landau,  J. Liu,  E. I. Proynov,  Y. M. Rhee,  R. M. Richard,  
 M. A. Rohrdanz,  R. P. Steele,  E. J. Sundstrom,  H. L. Woodcock III,  
 P. M. Zimmerman,  D. Zuev,  B. Albrecht,  E. Alguire,  B. Austin,  
 S. A. Baeppler,  G. J. O. Beran,  Y. A. Bernard,  E. Berquist,  
 K. Brandhorst,  K. B. Bravaya,  S. T. Brown,  D. Casanova,  C.-M. Chang,  
 Y. Chen,  S. H. Chien,  K. D. Closser,  D. L. Crittenden,  M. Diedenhofen,  
 R. A. DiStasio Jr.,  H. Do,  A. D. Dutoi,  R. G. Edgar,  P.-T. Fang,  
 S. Fatehi,  Q. Feng,  L. Fusti-Molnar,  A. Ghysels,  
 A. Golubeva-Zadorozhnaya,  J. Gomes,  A. Gunina,  M. W. D. Hanson-Heine,  
 P. H. P. Harbach,  A. W. Hauser,  E. G. Hohenstein,  Z. C. Holden,  K. Hui,  
 T.-C. Jagau,  H. Ji,  B. Kaduk,  K. Khistyaev,  Jaehoon Kim,  Jihan Kim,  
 R. A. King,  P. Klunzinger,  D. Kosenkov,  T. Kowalczyk,  C. M. Krauter,  
 K. U. Lao,  A. Laurent,  K. V. Lawler,  S. Lehtola,  S. V. Levchenko,  
 C. Y. Lin,  Y.-S. Lin,  F. Liu,  E. Livshits,  R. C. Lochan,  A. Luenser,  
 P. Manohar,  S. F. Manzer,  S.-P. Mao,  N. Mardirossian,  A. V. Marenich,  
 L. A. Martinez-Martinez,  S. A. Maurer,  N. J. Mayhall,  K. Nanda,  
 C. M. Oana,  R. Olivares-Amaya,  D. P. O'Neill,  J. A. Parkhill,  
 T. M. Perrine,  R. Peverati,  P. A. Pieniazek,  F. Plasser,  A. Prociuk,  
 D. R. Rehn,  E. Rosta,  N. J. Russ,  N. Sergueev,  S. M. Sharada,  
 S. Sharma,  D. W. Small,  A. Sodt,  T. Stauch,  T. Stein,  D. Stuck,  
 Y.-C. Su,  A. J. W. Thom,  T. Tsuchimochi,  L. Vogt,  O. Vydrov,  T. Wang,  
 M. A. Watson,  J. Wenzel,  A. White,  C. F. Williams,  V. Vanovschi,  
 S. Yeganeh,  S. R. Yost,  Z.-Q. You,  I. Y. Zhang,  X. Zhang,  Y. Zhao,  
 B. R. Brooks,  G. K. L. Chan,  D. M. Chipman,  C. J. Cramer,  
 W. A. Goddard III,  M. S. Gordon,  W. J. Hehre,  A. Klamt,  
 H. F. Schaefer III,  M. W. Schmidt,  C. D. Sherrill,  D. G. Truhlar,  
 A. Warshel,  X. Xu,  A. Aspuru-Guzik,  R. Baer,  A. T. Bell,  N. A. Besley,  
 J.-D. Chai,  A. Dreuw,  B. D. Dunietz,  T. R. Furlani,  S. R. Gwaltney,  
 C.-P. Hsu,  Y. Jung,  J. Kong,  D. S. Lambrecht,  W. Liang,  C. Ochsenfeld,  
 V. A. Rassolov,  L. V. Slipchenko,  J. E. Subotnik,  T. Van Voorhis,  
 J. M. Herbert,  A. I. Krylov,  P. M. W. Gill,  M. Head-Gordon

 Contributors to earlier versions of Q-Chem not listed above: 
 R. D. Adamson,  J. Baker,  E. F. C. Byrd,  A. K. Chakraborty,  C.-L. Cheng,  
 H. Dachsel,  R. J. Doerksen,  G. Hawkins,  A. Heyden,  S. Hirata,  
 G. Kedziora,  F. J. Keil,  C. Kelley,  P. P. Korambath,  W. Kurlancheek,  
 A. M. Lee,  M. S. Lee,  D. Liotard,  I. Lotan,  P. E. Maslen,  N. Nair,  
 D. Neuhauser,  R. Olson,  B. Peters,  J. Ritchie,  N. E. Schultz,  
 N. Shenvi,  A. C. Simmonett,  K. S. Thanthiriwatte,  Q. Wu,  W. Zhang

 Please cite Q-Chem as follows:
 Y. Shao et al., Mol. Phys. 113, 184-215 (2015)
 DOI: 10.1080/00268976.2014.952696

 Q-Chem 4.3.0 for Intel X86 Linux

 Parts of Q-Chem use Armadillo 5.200.1 (Boston Tea Smuggler).
 http://arma.sourceforge.net/

 Q-Chem begins on Wed Jan 25 15:17:21 2017  

Host: 
0

     Scratch files written to /scratch/qchem/qchem19339//
 Nov1815 1189b_ 19540  19532 5443   
 Parallel job on  1  processors
Processing $rem in /mnt/software/qchem/config/preferences.
 MEM_TOTAL  2000 

Checking the input file for inconsistencies... 	...done.

--------------------------------------------------------------
User input:
--------------------------------------------------------------

$comment
job2 - MOM calculation for 2b excited state wavefuntion
$end

$molecule
read
$end

$rem
JOBTYPE           SP
EXCHANGE          HF
BASIS             6-31G*
SCF_GUESS         READ
MOM_START         1
UNRESTRICTED      TRUE
$end

$swap_occupied_virtual
beta   20  22	!beta electron in RHF HOMO-1 moved to RHF LUMO
$end

--------------------------------------------------------------
 ----------------------------------------------------------------
             Standard Nuclear Orientation (Angstroms)
    I     Atom           X                Y                Z
 ----------------------------------------------------------------
    1      C       1.1364190000    -0.6961260000     0.0000000000
    2      C       1.1364190000     0.6961260000     0.0000000000
    3      N       0.0000000000    -1.4175320000     0.0000000000
    4      N       0.0000000000     1.4175320000     0.0000000000
    5      C      -1.1364190000     0.6961260000     0.0000000000
    6      C      -1.1364190000    -0.6961260000     0.0000000000
    7      H      -2.0671600000     1.2506250000     0.0000000000
    8      H      -2.0671600000    -1.2506250000     0.0000000000
    9      H       2.0671600000     1.2506250000     0.0000000000
   10      H       2.0671600000    -1.2506250000     0.0000000000
 ----------------------------------------------------------------
 Molecular Point Group                 D2h   NOp =  8
 Largest Abelian Subgroup              D2h   NOp =  8
 Nuclear Repulsion Energy =   207.9974042823 hartrees
 There are       21 alpha and       21 beta electrons
 Requested basis set is 6-31G(d)
 There are 32 shells and 98 basis functions

 Total QAlloc Memory Limit   2000 MB
 Mega-Array Size        61 MB
 MEM_STATIC part        62 MB

                       Distance Matrix (Angstroms)
             C (  1)   C (  2)   N (  3)   N (  4)   C (  5)   C (  6)
   C (  2)  1.392252
   N (  3)  1.346059  2.399791
   N (  4)  2.399791  1.346059  2.835064
   C (  5)  2.665363  2.272838  2.399791  1.346059
   C (  6)  2.272838  2.665363  1.346059  2.399791  1.392252
   H (  7)  3.748701  3.251213  3.375235  2.073887  1.083396  2.157804
   H (  8)  3.251213  3.748701  2.073887  3.375235  2.157804  1.083396
   H (  9)  2.157804  1.083396  3.375235  2.073887  3.251213  3.748701
   H ( 10)  1.083396  2.157804  2.073887  3.375235  3.748701  3.251213
             H (  7)   H (  8)   H (  9)
   H (  8)  2.501250
   H (  9)  4.134320  4.832065
   H ( 10)  4.832065  4.134320  2.501250
 
 tim1(1): 
  0.000000000000000E+000
 tim1(2): 
  0.000000000000000E+000
 A cutoff of  1.0D-08 yielded    495 shell pairs
 There are      4944 function pairs
 
 -------------------------------------------------------
 OpenMP Integral Computing Module                       
 Release: version 1.0, May 2013, Q-Chem Inc. Pittsburgh 
 -------------------------------------------------------
 Integral Job Info:
 Integral job number is                      11
 Integral operator is                         1
 short-range coefficients                     0
 long-range coefficients              100000000
 Omega coefficients                           0
 if combine SR and LR in K                    0
 Integral screening is                        0
 Integral computing path is                   2
 max size of driver memory is            800000
 size of driver memory is                593474
 size of scratch memory is              2260544
 max col of scratch BK array               1296
 max len of scratch array in speh3          155
 max len of scratch index in speh4           18
 max int batch size is                      520
 min int batch size is                       52
 fixed nKL is                                52
 max L of basis functions is                  2
 order of int derivative is                   0
 number of shells is                         32
 number of basis is                          98
 number of cartesian basis is                98
 number of contracted shell pairs           495
 number of primitive shell pairs           2101
 maxK2 (contraction) of shell pair           36
 max number of K2 of shell pair               1
 max number of CS2 of shell pair             52
 max number of PS2 of shell pair            312
 mem total for path MDJ                   27448
 -------------------------------------------------------
 Smallest overlap matrix eigenvalue = 1.40E-03

 Scale SEOQF with 1.000000e-01/1.000000e-01/1.000000e+00

 Standard Electronic Orientation quadrupole field applied
 Nucleus-field energy     =     0.0000000050 hartrees
 Guess MOs from SCF MO coefficient file
 Reading MOs from coefficient file
 User-specified occupied guess orbitals will be used
   Alpha:
   1   2   3   4   5   6   7   8   9  10  11  12  13  14  15
  16  17  18  19  20  21
 Reading MOs from coefficient file
   Beta:
   1   2   3   4   5   6   7   8   9  10  11  12  13  14  15
  16  17  18  19  22  21
 An unrestricted Hartree-Fock SCF calculation will be
 performed using Pulay DIIS extrapolation
 SCF converges when DIIS error is below 1.0E-05
 using 8 threads for integral computing 
 MOM overlap:    20.9985204553 / 21
 MOM overlap:    20.9847460239 / 21
 ---------------------------------------
  Cycle       Energy         DIIS Error
 ---------------------------------------
    1    -262.4727100394      2.10E-03
 MOM overlap:    20.9993104901 / 21
 MOM overlap:    20.9972882278 / 21
    2    -262.4972305122      9.29E-04
 MOM overlap:    20.9998708625 / 21
 MOM overlap:    20.9987254459 / 21
    3    -262.5019882810      4.91E-04
 MOM overlap:    20.9998957854 / 21
 MOM overlap:    20.9998064982 / 21
    4    -262.5035792196      1.03E-04
 MOM overlap:    20.9999440241 / 21
 MOM overlap:    20.9999589098 / 21
    5    -262.5038611224      5.36E-05
 MOM overlap:    20.9999848774 / 21
 MOM overlap:    20.9999938075 / 21
    6    -262.5039343291      2.28E-05
 MOM overlap:    20.9999966090 / 21
 MOM overlap:    20.9999985365 / 21
    7    -262.5039483899      1.01E-05
 MOM overlap:    20.9999995486 / 21
 MOM overlap:    20.9999996896 / 21
    8    -262.5039509760      3.38E-06 Convergence criterion met
 ---------------------------------------
 <S^2> = 1.0562
 SCF time:  CPU 8.02 s  wall 1.91 s
 SCF   energy in the final basis set = -262.5039509760
 Total energy in the final basis set = -262.5039509760
 
 --------------------------------------------------------------
             Orbital Energies (a.u.) and Symmetries
 --------------------------------------------------------------
 
 Alpha MOs, Unrestricted
 -- Occupied --                  
-15.594 -15.594 -11.289 -11.289 -11.288 -11.288  -1.293  -1.206
  1 B2u   1 Ag    1 B3u   2 Ag    2 B2u   1 B1g   3 Ag    3 B2u                
 -1.050  -0.902  -0.886  -0.734  -0.701  -0.679  -0.612  -0.549
  2 B3u   4 Ag    2 B1g   5 Ag    3 B3u   4 B2u   4 B3u   3 B1g                
 -0.546  -0.539  -0.446  -0.398  -0.348
  1 B1u   5 B2u   6 Ag    1 B3g   1 B2g                                        
 -- Virtual --                   
  0.119   0.133   0.253   0.277   0.301   0.314   0.353   0.353
  2 B1u   1 Au    7 Ag    5 B3u   6 B2u   4 B1g   8 Ag    2 B3g                
  0.469   0.491   0.493   0.619   0.683   0.701   0.733   0.744
  6 B3u   5 B1g   7 B2u   8 B2u   6 B1g   7 B3u   9 Ag    3 B1u                
  0.802   0.820   0.823   0.841   0.848   0.887   0.906   0.950
  2 B2g  10 Ag    8 B3u  11 Ag    3 B3g   2 Au    9 B2u   7 B1g                
  1.049   1.058   1.070   1.085   1.091   1.106   1.158   1.173
 10 B2u  12 Ag    8 B1g   9 B3u   4 B1u  11 B2u   4 B3g  13 Ag                 
  1.207   1.244   1.275   1.345   1.349   1.478   1.502   1.558
 10 B3u  12 B2u   9 B1g  13 B2u  10 B1g  11 B3u   3 B2g  14 Ag                 
  1.633   1.736   1.751   1.784   1.785   1.792   1.928   2.020
  5 B1u  11 B1g   6 B1u   5 B3g   3 Au    4 B2g  14 B2u  15 Ag                 
  2.071   2.139   2.157   2.290   2.352   2.426   2.479   2.528
 16 Ag   15 B2u  12 B3u  13 B3u  17 Ag    4 Au   14 B3u  12 B1g                
  2.531   2.555   2.600   2.668   2.745   2.825   2.875   2.917
 16 B2u   7 B1u   6 B3g   5 B2g   7 B3g  18 Ag   13 B1g  17 B2u                
  3.028   3.055   3.074   3.081   3.163   3.413   3.722   4.281
 19 Ag    5 Au   18 B2u  14 B1g  15 B3u  15 B1g  19 B2u  20 Ag                 
  4.489   4.542   4.603   4.731   4.904
 16 B3u  21 Ag   20 B2u  16 B1g  21 B2u                                        
 
 Beta MOs, Unrestricted
 -- Occupied --                  
-15.596 -15.596 -11.288 -11.288 -11.287 -11.287  -1.295  -1.210
  1 B2u   1 Ag    1 B3u   2 Ag    1 B1g   2 B2u   3 Ag    3 B2u                
 -1.045  -0.888  -0.875  -0.700  -0.676  -0.669  -0.613  -0.591
  2 B3u   4 Ag    2 B1g   5 Ag    3 B3u   4 B2u   1 B1u   4 B3u                
 -0.543  -0.521  -0.391  -0.348  -0.230
  3 B1g   1 B3g   1 B2g   5 B2u   2 B1u                                        
 -- Virtual --                   
 -0.083   0.137   0.261   0.275   0.279   0.303   0.314   0.345
  6 Ag    1 Au    7 Ag    2 B3g   5 B3u   6 B2u   4 B1g   8 Ag                 
  0.473   0.488   0.504   0.629   0.684   0.726   0.735   0.738
  6 B3u   5 B1g   7 B2u   8 B2u   6 B1g   7 B3u   3 B1u   9 Ag                 
  0.795   0.822   0.825   0.843   0.884   0.885   0.919   0.977
  2 B2g   8 B3u  10 Ag    3 B3g   2 Au   11 Ag    9 B2u   7 B1g                
  1.023   1.073   1.079   1.079   1.088   1.101   1.106   1.177
  4 B1u   8 B1g  10 B2u  12 Ag    9 B3u   4 B3g  11 B2u  13 Ag                 
  1.206   1.251   1.276   1.350   1.356   1.486   1.486   1.552
 10 B3u  12 B2u   9 B1g  10 B1g  13 B2u   3 B2g  11 B3u  14 Ag                 
  1.629   1.741   1.751   1.763   1.781   1.784   1.938   2.022
  5 B1u  11 B1g   6 B1u   3 Au    5 B3g   4 B2g  14 B2u  15 Ag                 
  2.081   2.152   2.169   2.295   2.356   2.419   2.482   2.518
 16 Ag   15 B2u  12 B3u  13 B3u  17 Ag    4 Au   14 B3u  16 B2u                
  2.537   2.546   2.601   2.645   2.738   2.819   2.878   2.914
 12 B1g   7 B1u   6 B3g   5 B2g   7 B3g  18 Ag   13 B1g  17 B2u                
  3.036   3.044   3.074   3.092   3.181   3.427   3.734   4.285
 19 Ag    5 Au   18 B2u  14 B1g  15 B3u  15 B1g  19 B2u  20 Ag                 
  4.490   4.544   4.605   4.731   4.908
 16 B3u  21 Ag   20 B2u  16 B1g  21 B2u                                        
 --------------------------------------------------------------
 
          Ground-State Mulliken Net Atomic Charges

     Atom                 Charge (a.u.)    Spin (a.u.)
  --------------------------------------------------------
      1 C                    -0.004231      -0.011343
      2 C                    -0.004231      -0.011343
      3 N                    -0.463114      -0.051938
      4 N                    -0.463114      -0.051938
      5 C                    -0.004231      -0.011343
      6 C                    -0.004231      -0.011343
      7 H                     0.235788       0.037312
      8 H                     0.235788       0.037312
      9 H                     0.235788       0.037312
     10 H                     0.235788       0.037312
  --------------------------------------------------------
  Sum of atomic charges =     0.000000
  Sum of spin   charges =     0.000000

 -----------------------------------------------------------------
                    Cartesian Multipole Moments
 -----------------------------------------------------------------
    Charge (ESU x 10^10)
                 0.0000
    Dipole Moment (Debye)
         X       0.0000      Y       0.0000      Z       0.0000
       Tot       0.0000
    Quadrupole Moments (Debye-Ang)
        XX     -25.8352     XY       0.0000     YY     -37.8064
        XZ       0.0000     YZ       0.0000     ZZ     -37.7918
    Octopole Moments (Debye-Ang^2)
       XXX       0.0000    XXY       0.0000    XYY       0.0000
       YYY       0.0000    XXZ       0.0000    XYZ       0.0000
       YYZ       0.0000    XZZ       0.0000    YZZ       0.0000
       ZZZ       0.0000
    Hexadecapole Moments (Debye-Ang^3)
      XXXX    -219.5490   XXXY       0.0000   XXYY     -65.2047
      XYYY       0.0000   YYYY    -275.6134   XXXZ       0.0000
      XXYZ       0.0000   XYYZ       0.0000   YYYZ       0.0000
      XXZZ     -55.4927   XYZZ       0.0000   YYZZ     -51.6190
      XZZZ       0.0000   YZZZ       0.0000   ZZZZ     -38.3071
 -----------------------------------------------------------------
Archival summary:
1\1\tp-linux1\SP\HF\6-31G*\244\thomas\WedJan2515:17:242017WedJan2515:17:242017\0\\#,HF,6-31G*,\\0,1\N\C,1,1.34606\H,2,1.0834,1,116.808\C,1,1.34606,2,115.185,3,180,0\H,4,1.0834,1,116.808,2,-180,0\C,2,1.39225,1,122.408,3,-180,0\H,6,1.0834,2,120.785,1,-180,0\N,6,1.34606,2,122.408,1,0,0\C,8,1.34606,6,115.185,2,0,0\H,9,1.0834,8,116.808,6,-180,0\\HF=-262.503951\\@

 Total job time:  2.39s(wall), 9.57s(cpu) 
 Wed Jan 25 15:17:24 2017

        *************************************************************
        *                                                           *
        *  Thank you very much for using Q-Chem.  Have a nice day.  *
        *                                                           *
        *************************************************************


0 sent ACK to 0 
now end server 0 ... 
cleanup process ... done

Running Job 3 of 3 cvs-adc.inp
qchem cvs-adc.inp_19339.2 /scratch/qchem/qchem19339/ 1
/mnt/software/qchem/bin/mpi/mpirun_qchem -machinefile /mnt/software/qchem/bin/mpi/machines -np 1 /mnt/software/qchem/exe/qcprog.exe cvs-adc.inp_19339.2 /scratch/qchem/qchem19339/

Process 0 of 1 is on tp-linux1 - thread support 0
initial socket setup ...start
initial socket setup ...done 
now start server 0 ... 

cmd = ssh tp-linux1 /mnt/software/qchem/bin/get_hostid 91687464 > /scratch/qchem/qchem19339/lic.dat
                  Welcome to Q-Chem
     A Quantum Leap Into The Future Of Chemistry


 Q-Chem 4.3, Q-Chem, Inc., Pleasanton, CA (2015)

 Y. Shao,  Z. Gan,  E. Epifanovsky,  A. T. B. Gilbert,  M. Wormit,  
 J. Kussmann,  A. W. Lange,  A. Behn,  J. Deng,  X. Feng,  D. Ghosh,  
 M. Goldey,  P. R. Horn,  L. D. Jacobson,  I. Kaliman,  R. Z. Khaliullin,  
 T. Kus,  A. Landau,  J. Liu,  E. I. Proynov,  Y. M. Rhee,  R. M. Richard,  
 M. A. Rohrdanz,  R. P. Steele,  E. J. Sundstrom,  H. L. Woodcock III,  
 P. M. Zimmerman,  D. Zuev,  B. Albrecht,  E. Alguire,  B. Austin,  
 S. A. Baeppler,  G. J. O. Beran,  Y. A. Bernard,  E. Berquist,  
 K. Brandhorst,  K. B. Bravaya,  S. T. Brown,  D. Casanova,  C.-M. Chang,  
 Y. Chen,  S. H. Chien,  K. D. Closser,  D. L. Crittenden,  M. Diedenhofen,  
 R. A. DiStasio Jr.,  H. Do,  A. D. Dutoi,  R. G. Edgar,  P.-T. Fang,  
 S. Fatehi,  Q. Feng,  L. Fusti-Molnar,  A. Ghysels,  
 A. Golubeva-Zadorozhnaya,  J. Gomes,  A. Gunina,  M. W. D. Hanson-Heine,  
 P. H. P. Harbach,  A. W. Hauser,  E. G. Hohenstein,  Z. C. Holden,  K. Hui,  
 T.-C. Jagau,  H. Ji,  B. Kaduk,  K. Khistyaev,  Jaehoon Kim,  Jihan Kim,  
 R. A. King,  P. Klunzinger,  D. Kosenkov,  T. Kowalczyk,  C. M. Krauter,  
 K. U. Lao,  A. Laurent,  K. V. Lawler,  S. Lehtola,  S. V. Levchenko,  
 C. Y. Lin,  Y.-S. Lin,  F. Liu,  E. Livshits,  R. C. Lochan,  A. Luenser,  
 P. Manohar,  S. F. Manzer,  S.-P. Mao,  N. Mardirossian,  A. V. Marenich,  
 L. A. Martinez-Martinez,  S. A. Maurer,  N. J. Mayhall,  K. Nanda,  
 C. M. Oana,  R. Olivares-Amaya,  D. P. O'Neill,  J. A. Parkhill,  
 T. M. Perrine,  R. Peverati,  P. A. Pieniazek,  F. Plasser,  A. Prociuk,  
 D. R. Rehn,  E. Rosta,  N. J. Russ,  N. Sergueev,  S. M. Sharada,  
 S. Sharma,  D. W. Small,  A. Sodt,  T. Stauch,  T. Stein,  D. Stuck,  
 Y.-C. Su,  A. J. W. Thom,  T. Tsuchimochi,  L. Vogt,  O. Vydrov,  T. Wang,  
 M. A. Watson,  J. Wenzel,  A. White,  C. F. Williams,  V. Vanovschi,  
 S. Yeganeh,  S. R. Yost,  Z.-Q. You,  I. Y. Zhang,  X. Zhang,  Y. Zhao,  
 B. R. Brooks,  G. K. L. Chan,  D. M. Chipman,  C. J. Cramer,  
 W. A. Goddard III,  M. S. Gordon,  W. J. Hehre,  A. Klamt,  
 H. F. Schaefer III,  M. W. Schmidt,  C. D. Sherrill,  D. G. Truhlar,  
 A. Warshel,  X. Xu,  A. Aspuru-Guzik,  R. Baer,  A. T. Bell,  N. A. Besley,  
 J.-D. Chai,  A. Dreuw,  B. D. Dunietz,  T. R. Furlani,  S. R. Gwaltney,  
 C.-P. Hsu,  Y. Jung,  J. Kong,  D. S. Lambrecht,  W. Liang,  C. Ochsenfeld,  
 V. A. Rassolov,  L. V. Slipchenko,  J. E. Subotnik,  T. Van Voorhis,  
 J. M. Herbert,  A. I. Krylov,  P. M. W. Gill,  M. Head-Gordon

 Contributors to earlier versions of Q-Chem not listed above: 
 R. D. Adamson,  J. Baker,  E. F. C. Byrd,  A. K. Chakraborty,  C.-L. Cheng,  
 H. Dachsel,  R. J. Doerksen,  G. Hawkins,  A. Heyden,  S. Hirata,  
 G. Kedziora,  F. J. Keil,  C. Kelley,  P. P. Korambath,  W. Kurlancheek,  
 A. M. Lee,  M. S. Lee,  D. Liotard,  I. Lotan,  P. E. Maslen,  N. Nair,  
 D. Neuhauser,  R. Olson,  B. Peters,  J. Ritchie,  N. E. Schultz,  
 N. Shenvi,  A. C. Simmonett,  K. S. Thanthiriwatte,  Q. Wu,  W. Zhang

 Please cite Q-Chem as follows:
 Y. Shao et al., Mol. Phys. 113, 184-215 (2015)
 DOI: 10.1080/00268976.2014.952696

 Q-Chem 4.3.0 for Intel X86 Linux

 Parts of Q-Chem use Armadillo 5.200.1 (Boston Tea Smuggler).
 http://arma.sourceforge.net/

 Q-Chem begins on Wed Jan 25 15:17:26 2017  

Host: 
0

     Scratch files written to /scratch/qchem/qchem19339//
 Nov1815 1189b_ 19540  19532 5443   
 Parallel job on  1  processors
Processing $rem in /mnt/software/qchem/config/preferences.
 MEM_TOTAL  2000 

Checking the input file for inconsistencies... 	...done.

--------------------------------------------------------------
User input:
--------------------------------------------------------------

$comment
job3 - cvs-adc(2)-x calculation with mom to prevent collapse to ground state
$end

$molecule
read
$end

$rem
mem_total 3000
mem_static 1500
method cvs-adc(2)-x
basis 6-31G*
ee_singlets 6
cc_rest_occ 1                  !only excitations from the 1st orbital (N 1s)
unrestricted  true
max_scf_cycles 200
mom_start 1
scf_guess read
symmetry off
$end

--------------------------------------------------------------
 ----------------------------------------------------------------
             Standard Nuclear Orientation (Angstroms)
    I     Atom           X                Y                Z
 ----------------------------------------------------------------
    1      C       1.1364190000    -0.6961260000     0.0000000000
    2      C       1.1364190000     0.6961260000     0.0000000000
    3      N       0.0000000000    -1.4175320000     0.0000000000
    4      N       0.0000000000     1.4175320000     0.0000000000
    5      C      -1.1364190000     0.6961260000     0.0000000000
    6      C      -1.1364190000    -0.6961260000     0.0000000000
    7      H      -2.0671600000     1.2506250000     0.0000000000
    8      H      -2.0671600000    -1.2506250000     0.0000000000
    9      H       2.0671600000     1.2506250000     0.0000000000
   10      H       2.0671600000    -1.2506250000     0.0000000000
 ----------------------------------------------------------------
 Molecular Point Group                 D2h   NOp =  8
 Largest Abelian Subgroup              D2h   NOp =  8
 Nuclear Repulsion Energy =   207.9974042823 hartrees
 There are       21 alpha and       21 beta electrons
 Requested basis set is 6-31G(d)
 There are 32 shells and 98 basis functions

 Total QAlloc Memory Limit   3000 MB
 Mega-Array Size      1467 MB
 MEM_STATIC part      1500 MB

                       Distance Matrix (Angstroms)
             C (  1)   C (  2)   N (  3)   N (  4)   C (  5)   C (  6)
   C (  2)  1.392252
   N (  3)  1.346059  2.399791
   N (  4)  2.399791  1.346059  2.835064
   C (  5)  2.665363  2.272838  2.399791  1.346059
   C (  6)  2.272838  2.665363  1.346059  2.399791  1.392252
   H (  7)  3.748701  3.251213  3.375235  2.073887  1.083396  2.157804
   H (  8)  3.251213  3.748701  2.073887  3.375235  2.157804  1.083396
   H (  9)  2.157804  1.083396  3.375235  2.073887  3.251213  3.748701
   H ( 10)  1.083396  2.157804  2.073887  3.375235  3.748701  3.251213
             H (  7)   H (  8)   H (  9)
   H (  8)  2.501250
   H (  9)  4.134320  4.832065
   H ( 10)  4.832065  4.134320  2.501250
 
 tim1(1): 
  0.000000000000000E+000
 tim1(2): 
  0.000000000000000E+000
 A cutoff of  1.0D-11 yielded    513 shell pairs
 There are      4998 function pairs
 
 -------------------------------------------------------
 OpenMP Integral Computing Module                       
 Release: version 1.0, May 2013, Q-Chem Inc. Pittsburgh 
 -------------------------------------------------------
 Integral Job Info:
 Integral job number is                      11
 Integral operator is                         1
 short-range coefficients                     0
 long-range coefficients              100000000
 Omega coefficients                           0
 if combine SR and LR in K                    0
 Integral screening is                        0
 Integral computing path is                   2
 max size of driver memory is            800000
 size of driver memory is                593474
 size of scratch memory is              2260544
 max col of scratch BK array               1296
 max len of scratch array in speh3          155
 max len of scratch index in speh4           18
 max int batch size is                      520
 min int batch size is                       52
 fixed nKL is                                52
 max L of basis functions is                  2
 order of int derivative is                   0
 number of shells is                         32
 number of basis is                          98
 number of cartesian basis is                98
 number of contracted shell pairs           513
 number of primitive shell pairs           2277
 maxK2 (contraction) of shell pair           36
 max number of K2 of shell pair               1
 max number of CS2 of shell pair             58
 max number of PS2 of shell pair            348
 mem total for path MDJ                   28696
 -------------------------------------------------------
 Smallest overlap matrix eigenvalue = 1.40E-03

 Scale SEOQF with 1.000000e-01/1.000000e-01/1.000000e+00

 Standard Electronic Orientation quadrupole field applied
 Nucleus-field energy     =     0.0000000050 hartrees
 Guess MOs from SCF MO coefficient file
 Reading MOs from coefficient file
 Reading MOs from coefficient file
 An unrestricted Hartree-Fock SCF calculation will be
 performed using Pulay DIIS extrapolation
 SCF converges when DIIS error is below 1.0E-08
 using 8 threads for integral computing 
 MOM overlap:    21.0000000031 / 21
 MOM overlap:    20.9999999971 / 21
 ---------------------------------------
  Cycle       Energy         DIIS Error
 ---------------------------------------
    1    -262.5039514589      9.74E-07
 MOM overlap:    20.9999999989 / 21
 MOM overlap:    20.9999999970 / 21
    2    -262.5039514721      5.16E-07
 MOM overlap:    20.9999999974 / 21
 MOM overlap:    20.9999999970 / 21
    3    -262.5039514775      3.55E-07
 MOM overlap:    20.9999999997 / 21
 MOM overlap:    20.9999999998 / 21
    4    -262.5039514806      1.13E-07
 MOM overlap:    20.9999999999 / 21
 MOM overlap:    21.0000000000 / 21
    5    -262.5039514809      4.52E-08
 MOM overlap:    21.0000000000 / 21
 MOM overlap:    21.0000000000 / 21
    6    -262.5039514809      1.26E-08
 MOM overlap:    21.0000000000 / 21
 MOM overlap:    21.0000000000 / 21
    7    -262.5039514809      3.93E-09 Convergence criterion met
 ---------------------------------------
 <S^2> = 1.0563
 SCF time:  CPU 9.62 s  wall 2.02 s
 SCF   energy in the final basis set = -262.5039514809
 Total energy in the final basis set = -262.5039514809
================================================================================
|                                                                              |
|                                 A D C  M A N                                 |
|                                                                              |
 ------------------------------------------------------------------------------ 
|                                                                              |
| Components:                                                                  |
|                                                                              |
| - libvmm - 1.2-release                                                       |
|   Authors:                                                                   |
|   Evgeny Epifanovsky, Ilya Kaliman                                           |
|                                                                              |
| - libtensor - 2.4-trunk                                                      |
|   Authors:                                                                   |
|   Evgeny Epifanovsky, Michael Wormit, Dmitry Zuev, Sam Manzer                |
|                                                                              |
| - libwfa - 1.1-beta                                                          |
|   Authors:                                                                   |
|   Felix Plasser, Stefanie Baeppler, Benjamin Thomitzni, Michael Wormit       |
|                                                                              |
| - libadc - 1.0-beta                                                          |
|   Authors:                                                                   |
|   Michael Wormit, Philipp H. P. Harbach, Caroline Krauter, Dirk Rehn,        |
|   Matthias Schneider, Jan Wenzel                                             |
|                                                                              |
| - adcman - 2.4-beta                                                          |
|   Authors:                                                                   |
|   Michael Wormit, Philipp H. P. Harbach, Caroline Krauter, Dirk Rehn,        |
|   Jan Wenzel, Andreas Dreuw                                                  |
|                                                                              |
| Authors of earlier versions of ADCMAN:                                       |
| Andreas Dreuw, Jan Hendrik Starcke, Dirk Rehn, Michael Wormit                |
|                                                                              |
================================================================================

 
 Alpha MOs, Unrestricted
 -- Occupied --                  
-15.594 -15.594 -11.289 -11.289 -11.288 -11.288  -1.293  -1.206
  1 B2u   1 Ag    1 B3u   2 Ag    2 B2u   1 B1g   3 Ag    3 B2u                
 -1.050  -0.902  -0.886  -0.734  -0.701  -0.679  -0.612  -0.549
  2 B3u   4 Ag    2 B1g   5 Ag    3 B3u   4 B2u   4 B3u   3 B1g                
 -0.546  -0.539  -0.446  -0.398  -0.348
  1 B1u   5 B2u   6 Ag    1 B3g   1 B2g                                        
 -- Virtual --                   
  0.119   0.133   0.253   0.277   0.301   0.314   0.353   0.353
  2 B1u   1 Au    7 Ag    5 B3u   6 B2u   4 B1g   8 Ag    2 B3g                
  0.469   0.491   0.493   0.619   0.683   0.700   0.733   0.744
  6 B3u   5 B1g   7 B2u   8 B2u   6 B1g   7 B3u   9 Ag    3 B1u                
  0.802   0.820   0.823   0.841   0.848   0.887   0.906   0.950
  2 B2g  10 Ag    8 B3u  11 Ag    3 B3g   2 Au    9 B2u   7 B1g                
  1.049   1.058   1.070   1.085   1.091   1.106   1.158   1.173
 10 B2u  12 Ag    8 B1g   9 B3u   4 B1u  11 B2u   4 B3g  13 Ag                 
  1.207   1.244   1.275   1.345   1.349   1.478   1.502   1.558
 10 B3u  12 B2u   9 B1g  13 B2u  10 B1g  11 B3u   3 B2g  14 Ag                 
  1.633   1.736   1.751   1.784   1.785   1.792   1.928   2.020
  5 B1u  11 B1g   6 B1u   5 B3g   3 Au    4 B2g  14 B2u  15 Ag                 
  2.071   2.139   2.157   2.290   2.352   2.426   2.479   2.528
 16 Ag   15 B2u  12 B3u  13 B3u  17 Ag    4 Au   14 B3u  12 B1g                
  2.531   2.555   2.600   2.668   2.745   2.825   2.875   2.917
 16 B2u   7 B1u   6 B3g   5 B2g   7 B3g  18 Ag   13 B1g  17 B2u                
  3.028   3.055   3.074   3.081   3.163   3.414   3.722   4.281
 19 Ag    5 Au   18 B2u  14 B1g  15 B3u  15 B1g  19 B2u  20 Ag                 
  4.489   4.542   4.603   4.731   4.904
 16 B3u  21 Ag   20 B2u  16 B1g  21 B2u                                        
 
 Beta MOs, Unrestricted
 -- Occupied --                  
-15.596 -15.596 -11.288 -11.288 -11.287 -11.287  -1.295  -1.210
  1 B2u   1 Ag    1 B3u   2 Ag    1 B1g   2 B2u   3 Ag    3 B2u                
 -1.045  -0.888  -0.875  -0.700  -0.676  -0.669  -0.613  -0.591
  2 B3u   4 Ag    2 B1g   5 Ag    3 B3u   4 B2u   1 B1u   4 B3u                
 -0.543  -0.521  -0.391  -0.348  -0.230
  3 B1g   1 B3g   1 B2g   5 B2u   2 B1u                                        
 -- Virtual --                   
 -0.083   0.137   0.261   0.275   0.279   0.303   0.314   0.345
  6 Ag    1 Au    7 Ag    2 B3g   5 B3u   6 B2u   4 B1g   8 Ag                 
  0.473   0.488   0.504   0.629   0.684   0.726   0.735   0.738
  6 B3u   5 B1g   7 B2u   8 B2u   6 B1g   7 B3u   3 B1u   9 Ag                 
  0.795   0.822   0.825   0.843   0.884   0.885   0.919   0.977
  2 B2g   8 B3u  10 Ag    3 B3g   2 Au   11 Ag    9 B2u   7 B1g                
  1.023   1.073   1.079   1.079   1.088   1.101   1.106   1.177
  4 B1u   8 B1g  10 B2u  12 Ag    9 B3u   4 B3g  11 B2u  13 Ag                 
  1.206   1.251   1.276   1.350   1.356   1.486   1.486   1.552
 10 B3u  12 B2u   9 B1g  10 B1g  13 B2u   3 B2g  11 B3u  14 Ag                 
  1.629   1.741   1.751   1.763   1.781   1.784   1.938   2.022
  5 B1u  11 B1g   6 B1u   3 Au    5 B3g   4 B2g  14 B2u  15 Ag                 
  2.081   2.152   2.169   2.295   2.356   2.419   2.482   2.518
 16 Ag   15 B2u  12 B3u  13 B3u  17 Ag    4 Au   14 B3u  16 B2u                
  2.537   2.546   2.601   2.645   2.738   2.819   2.878   2.914
 12 B1g   7 B1u   6 B3g   5 B2g   7 B3g  18 Ag   13 B1g  17 B2u                
  3.036   3.044   3.074   3.092   3.181   3.427   3.734   4.285
 19 Ag    5 Au   18 B2u  14 B1g  15 B3u  15 B1g  19 B2u  20 Ag                 
  4.490   4.544   4.605   4.731   4.908
 16 B3u  21 Ag   20 B2u  16 B1g  21 B2u                                        
 

--------------------------------------------------------------------------------
                                   HF Summary                                   
--------------------------------------------------------------------------------
  Energy:                                                 -262.5039514809 a.u.
  Dip. moment [a.u.]:                  [   0.000000,    0.000000,   -0.000000]
  Total dipole [Debye]:                                               0.000000
  <r^2> [a.u.]:                        [ 190.930729,  192.441221,   28.097307]
  Total <r^2> [a.u.]:                                               411.469258
--------------------------------------------------------------------------------

--------------------------------------------------------------------------------
                                 MP(2) Summary                                  
--------------------------------------------------------------------------------
  Energy contribution:                                      -0.8783801525 a.u.
  Total energy:                                           -263.3823316333 a.u.
  Dip. moment [a.u.]:                  [   0.000000,    0.000000,   -0.000000]
  Total dipole [Debye]:                                               0.000000
  <r^2> [a.u.]:                        [ 190.980009,  191.583602,   27.603424]
  Total <r^2> [a.u.]:                                               410.167035
--------------------------------------------------------------------------------
  Starting Davidson ... 
--------------------------------------------------------------------------------
   It NVec Conv  Avg. Norm  Max. Norm  Conv. states           Remark
--------------------------------------------------------------------------------
         6    0  4.147e-01  1.045e+00 15.7107 n n n n n n     Guess.
    1   12    0  2.432e-01  7.699e-01 15.3729 n n n n n n     
    2   18    0  1.794e-01  6.748e-01 15.3141 n n n n n n     
    3   24    0  1.140e-01  4.515e-01 15.3081 n n n n n n     
    4   30    0  8.959e-02  3.275e-01 15.2086 n n n n n n     
    5   12    0  7.651e-02  3.332e-01 15.1789 n n n n n n     Subspace collapsed.
    6   18    0  3.541e-02  1.551e-01 15.1754 n n n n n n     
    7   24    0  4.423e-02  1.780e-01 15.1743 n n n n n n     
    8   30    0  1.920e-02  1.045e-01 15.1726 n n n n n n     
    9   12    0  8.082e-03  4.354e-02 15.1723 n n n n n n     Subspace collapsed.
   10   18    0  4.852e-03  2.668e-02 15.1723 n n n n n n     
   11   24    0  1.929e-03  1.041e-02 15.1723 n n n n n n     
   12   30    0  8.392e-04  4.488e-03 15.1722 n n n n n n     
   13   12    0  4.467e-04  2.384e-03 15.1722 n n n n n n     Subspace collapsed.
   14   18    0  3.201e-04  1.673e-03 15.1722 n n n n n n     
   15   24    0  1.797e-04  8.546e-04 15.1722 n n n n n n     
   16   30    0  1.000e-04  4.278e-04 15.1722 n n n n n n     
   17   12    0  4.279e-05  1.744e-04 15.1722 n n n n n n     Subspace collapsed.
   18   18    0  3.336e-05  1.558e-04 15.1722 n n n n n n     
   19   24    1  2.361e-05  1.175e-04 15.1722 n y n n n n     
   20   30    1  1.609e-05  8.228e-05 15.1722 n y n n n n     
   21   12    2  8.645e-06  4.502e-05 15.1722 y y n n n n     Subspace collapsed.
   22   18    2  8.701e-06  4.650e-05 15.1722 y y n n n n     
   23   24    2  6.704e-06  3.649e-05 15.1722 y y n n n n     
   24   30    3  4.147e-06  2.291e-05 15.1722 y y y n n n     
   25   12    3  2.229e-06  1.217e-05 15.1722 y y y n n n     Subspace collapsed.
   26   18    4  1.670e-06  8.961e-06 15.1722 y y y y n n     
   27   24    4  1.031e-06  5.148e-06 15.1722 y y y y n n     
   28   30    4  8.067e-07  4.223e-06 15.1722 y y y y n n     
   29   12    4  4.847e-07  2.392e-06 15.1722 y y y y n n     Subspace collapsed.
   30   18    4  4.638e-07  2.361e-06 15.1722 y y y y n n     
   31   24    5  2.987e-07  1.617e-06 15.1722 y y y y y n     
   32   30    5  2.415e-07  1.377e-06 15.1722 y y y y y n     
   33   12    6  1.311e-07  7.553e-07 15.1722 y y y y y y     Converged.
--------------------------------------------------------------------------------
  Davidson Summary: 
 ------------------------------------------------------------
  State  0: excitation energy =  15.1722 a.u.   (converged)
  State  1: excitation energy =  15.1753 a.u.   (converged)
  State  2: excitation energy =  15.2246 a.u.   (converged)
  State  3: excitation energy =  15.2533 a.u.   (converged)
  State  4: excitation energy =  15.3059 a.u.   (converged)
  State  5: excitation energy =  15.3144 a.u.   (converged)
 ------------------------------------------------------------

  Starting Davidson ... 
--------------------------------------------------------------------------------
   It NVec Conv  Avg. Norm  Max. Norm  Conv. states           Remark
--------------------------------------------------------------------------------
         6    0  4.153e-01  1.028e+00 15.6865 n n n n n n     Guess.
    1   12    0  2.105e-01  6.420e-01 15.4034 n n n n n n     
    2   18    0  1.148e-01  4.501e-01 15.2918 n n n n n n     
    3   24    0  6.916e-02  3.632e-01 15.2813 n n n n n n     
    4   30    0  8.528e-02  4.335e-01 15.2803 n n n n n n     
    5   12    0  6.345e-02  3.299e-01 15.2268 n n n n n n     Subspace collapsed.
    6   18    0  6.996e-02  3.912e-01 15.1471 n n n n n n     
    7   24    0  5.351e-02  3.168e-01 15.1353 n n n n n n     
    8   30    0  1.585e-02  9.287e-02 15.1344 n n n n n n     
    9   12    0  5.911e-03  3.409e-02 15.1343 n n n n n n     Subspace collapsed.
   10   18    0  2.047e-03  1.082e-02 15.1343 n n n n n n     
   11   24    0  7.872e-04  3.499e-03 15.1343 n n n n n n     
   12   30    0  5.076e-04  2.849e-03 15.1343 n n n n n n     
   13   12    0  3.559e-04  2.084e-03 15.1343 n n n n n n     Subspace collapsed.
   14   18    0  4.280e-04  2.550e-03 15.1343 n n n n n n     
   15   24    0  2.949e-04  1.764e-03 15.1343 n n n n n n     
   16   30    0  2.618e-04  1.568e-03 15.1343 n n n n n n     
   17   12    2  1.421e-04  8.507e-04 15.1343 n n y y n n     Subspace collapsed.
   18   18    3  1.097e-04  6.571e-04 15.1343 y n y y n n     
   19   24    4  6.660e-05  3.991e-04 15.1343 y y y y n n     
   20   30    4  4.905e-05  2.941e-04 15.1343 y y y y n n     
   21   12    4  3.468e-05  2.080e-04 15.1343 y y y y n n     Subspace collapsed.
   22   18    4  4.293e-05  2.575e-04 15.1343 y y y y n n     
   23   24    4  3.044e-05  1.826e-04 15.1343 y y y y n n     
   24   30    4  2.311e-05  1.386e-04 15.1343 y y y y n n     
   25   12    4  1.329e-05  7.973e-05 15.1343 y y y y n n     Subspace collapsed.
   26   18    5  1.024e-05  6.145e-05 15.1343 y y y y y n     
   27   24    5  5.734e-06  3.440e-05 15.1343 y y y y y n     
   28   30    5  5.066e-06  3.039e-05 15.1343 y y y y y n     
   29   12    5  3.204e-06  1.922e-05 15.1343 y y y y y n     Subspace collapsed.
   30   18    5  4.036e-06  2.422e-05 15.1343 y y y y y n     
   31   24    5  2.906e-06  1.744e-05 15.1343 y y y y y n     
   32   30    5  2.147e-06  1.288e-05 15.1343 y y y y y n     
   33   11    5  1.189e-06  7.136e-06 15.1343 y y y y y n     Subspace collapsed.
   34   16    5  9.322e-07  5.593e-06 15.1343 y y y y y n     
   35   16    5  9.322e-07  5.593e-06 15.1343 y y y y y n     
   36   22    5  5.367e-07  3.220e-06 15.1343 y y y y y n     
   37   24    5  5.029e-07  3.018e-06 15.1343 y y y y y n     
   38   26    5  4.441e-07  2.665e-06 15.1343 y y y y y n     
   39   28    5  2.854e-07  1.713e-06 15.1343 y y y y y n     
   40   30    6  1.170e-07  7.021e-07 15.1343 y y y y y y     Converged.
--------------------------------------------------------------------------------
  Davidson Summary: 
 ------------------------------------------------------------
  State  0: excitation energy =  15.1343 a.u.   (converged)
  State  1: excitation energy =  15.1385 a.u.   (converged)
  State  2: excitation energy =  15.2802 a.u.   (converged)
  State  3: excitation energy =  15.2883 a.u.   (converged)
  State  4: excitation energy =  15.3716 a.u.   (converged)
  State  5: excitation energy =  15.3919 a.u.   (converged)
 ------------------------------------------------------------

  Starting Davidson ... 
--------------------------------------------------------------------------------
   It NVec Conv  Avg. Norm  Max. Norm  Conv. states           Remark
--------------------------------------------------------------------------------
         6    0  4.180e-01  1.047e+00 15.4994 n n n n n n     Guess.
    1   12    0  2.866e-01  8.725e-01 15.1346 n n n n n n     
    2   18    0  1.758e-01  7.220e-01 15.0933 n n n n n n     
    3   24    0  1.556e-01  7.169e-01 15.0900 n n n n n n     
    4   30    0  1.093e-01  4.701e-01 15.0895 n n n n n n     
    5   12    0  9.658e-02  3.986e-01 15.0895 n n n n n n     Subspace collapsed.
    6   18    0  6.431e-02  2.473e-01 15.0895 n n n n n n     
    7   24    0  3.510e-02  1.626e-01 15.0895 n n n n n n     
    8   30    0  2.029e-02  9.061e-02 15.0895 n n n n n n     
    9   12    0  1.582e-02  6.810e-02 15.0895 n n n n n n     Subspace collapsed.
   10   18    0  1.799e-02  8.067e-02 15.0895 n n n n n n     
   11   24    0  1.630e-02  6.509e-02 15.0895 n n n n n n     
   12   30    1  7.282e-03  3.067e-02 15.0895 y n n n n n     
   13   12    1  3.069e-03  1.305e-02 15.0895 y n n n n n     Subspace collapsed.
   14   18    2  2.136e-03  9.536e-03 15.0895 y y n n n n     
   15   24    2  1.336e-03  6.277e-03 15.0895 y y n n n n     
   16   30    2  6.151e-04  2.934e-03 15.0895 y y n n n n     
   17   12    2  4.116e-04  2.022e-03 15.0895 y y n n n n     Subspace collapsed.
   18   18    2  4.348e-04  2.277e-03 15.0895 y y n n n n     
   19   24    2  4.547e-04  2.455e-03 15.0895 y y n n n n     
   20   30    2  3.366e-04  1.805e-03 15.0895 y y n n n n     
   21   12    2  1.627e-04  8.706e-04 15.0895 y y n n n n     Subspace collapsed.
   22   18    2  1.209e-04  6.321e-04 15.0895 y y n n n n     
   23   24    2  9.195e-05  4.738e-04 15.0895 y y n n n n     
   24   30    2  8.902e-05  4.629e-04 15.0895 y y n n n n     
   25   11    2  5.441e-05  2.800e-04 15.0895 y y n n n n     Subspace collapsed.
   26   15    2  6.672e-05  3.468e-04 15.0895 y y n n n n     
   27   19    2  6.311e-05  3.229e-04 15.0895 y y n n n n     
   28   23    2  5.694e-05  2.811e-04 15.0895 y y n n n n     
   29   27    3  3.899e-05  1.853e-04 15.0895 y y y n n n     
   30   30    3  1.818e-05  8.422e-05 15.0895 y y y n n n     
   31   10    4  8.093e-06  3.732e-05 15.0895 y y y y n n     Subspace collapsed.
   32   14    4  6.079e-06  2.764e-05 15.0895 y y y y n n     
   33   18    4  3.570e-06  1.616e-05 15.0895 y y y y n n     
   34   22    4  1.923e-06  8.610e-06 15.0895 y y y y n n     
   35   26    4  1.085e-06  4.654e-06 15.0895 y y y y n n     
   36   30    4  9.413e-07  3.996e-06 15.0895 y y y y n n     
   37   10    4  5.602e-07  2.406e-06 15.0895 y y y y n n     Subspace collapsed.
   38   14    4  1.043e-06  4.478e-06 15.0895 y y y y n n     
   39   18    4  1.020e-06  4.620e-06 15.0895 y y y y n n     
   40   22    4  7.448e-07  3.516e-06 15.0895 y y y y n n     
   41   26    4  4.501e-07  2.174e-06 15.0895 y y y y n n     
   42   30    5  2.593e-07  1.263e-06 15.0895 y y y y y n     
   43   10    6  1.206e-07  5.890e-07 15.0895 y y y y y y     Converged.
--------------------------------------------------------------------------------
  Davidson Summary: 
 ------------------------------------------------------------
  State  0: excitation energy =  15.0895 a.u.   (converged)
  State  1: excitation energy =  15.1014 a.u.   (converged)
  State  2: excitation energy =  15.3294 a.u.   (converged)
  State  3: excitation energy =  15.3390 a.u.   (converged)
  State  4: excitation energy =  15.3705 a.u.   (converged)
  State  5: excitation energy =  15.3754 a.u.   (converged)
 ------------------------------------------------------------

  Starting Davidson ... 
--------------------------------------------------------------------------------
   It NVec Conv  Avg. Norm  Max. Norm  Conv. states           Remark
--------------------------------------------------------------------------------
         6    0  3.970e-01  1.026e+00 15.3380 n n n n n n     Guess.
    1   12    0  2.610e-01  1.125e+00 15.1139 n n n n n n     
    2   18    0  1.533e-01  5.540e-01 15.0397 n n n n n n     
    3   24    0  1.193e-01  3.870e-01 15.0328 n n n n n n     
    4   30    0  7.436e-02  2.666e-01 15.0317 n n n n n n     
    5   12    0  6.309e-02  2.634e-01 15.0316 n n n n n n     Subspace collapsed.
    6   18    0  5.502e-02  2.570e-01 15.0316 n n n n n n     
    7   24    0  7.621e-02  3.300e-01 15.0316 n n n n n n     
    8   30    0  5.481e-02  2.186e-01 15.0316 n n n n n n     
    9   12    0  4.684e-02  1.720e-01 15.0316 n n n n n n     Subspace collapsed.
   10   18    0  6.962e-02  3.050e-01 15.0316 n n n n n n     
   11   24    0  2.464e-02  1.002e-01 15.0316 n n n n n n     
   12   30    0  1.085e-02  4.594e-02 15.0316 n n n n n n     
   13   12    1  5.194e-03  1.912e-02 15.0316 y n n n n n     Subspace collapsed.
   14   18    1  4.282e-02  2.556e-01 15.0316 y n n n n n     
   15   24    1  1.843e-02  1.069e-01 15.0316 y n n n n n     
   16   30    1  7.828e-03  4.582e-02 15.0316 y n n n n n     
   17   12    1  3.379e-03  1.977e-02 15.0316 y n n n n n     Subspace collapsed.
   18   18    2  3.155e-03  1.854e-02 15.0316 y y n n n n     
   19   24    2  1.377e-03  8.066e-03 15.0316 y y n n n n     
   20   30    2  4.647e-04  2.712e-03 15.0316 y y n n n n     
   21   12    2  2.143e-04  1.252e-03 15.0316 y y n n n n     Subspace collapsed.
   22   18    2  1.119e-04  6.428e-04 15.0316 y y n n n n     
   23   24    2  6.540e-05  3.815e-04 15.0316 y y n n n n     
   24   30    2  3.236e-05  1.864e-04 15.0316 y y n n n n     
   25   12    3  1.473e-05  8.423e-05 15.0316 y y y n n n     Subspace collapsed.
   26   17    3  1.123e-05  6.205e-05 15.0316 y y y n n n     
   27   22    3  6.189e-06  3.354e-05 15.0316 y y y n n n     
   28   27    3  3.634e-06  1.944e-05 15.0316 y y y n n n     
   29   30    4  3.012e-06  1.617e-05 15.0316 y y y y n n     
   30   11    4  1.315e-06  6.844e-06 15.0316 y y y y n n     Subspace collapsed.
   31   16    4  1.216e-06  6.438e-06 15.0316 y y y y n n     
   32   21    4  7.873e-07  3.859e-06 15.0316 y y y y n n     
   33   25    4  4.838e-07  2.083e-06 15.0316 y y y y n n     
   34   29    6  2.195e-07  9.355e-07 15.0316 y y y y y y     Converged.
--------------------------------------------------------------------------------
  Davidson Summary: 
 ------------------------------------------------------------
  State  0: excitation energy =  15.0316 a.u.   (converged)
  State  1: excitation energy =  15.2177 a.u.   (converged)
  State  2: excitation energy =  15.3047 a.u.   (converged)
  State  3: excitation energy =  15.3312 a.u.   (converged)
  State  4: excitation energy =  15.3487 a.u.   (converged)
  State  5: excitation energy =  15.3693 a.u.   (converged)
 ------------------------------------------------------------

  Starting Davidson ... 
--------------------------------------------------------------------------------
   It NVec Conv  Avg. Norm  Max. Norm  Conv. states           Remark
--------------------------------------------------------------------------------
         6    0  4.228e-01  1.060e+00 16.1508 n n n n n n     Guess.
    1   12    0  2.929e-01  8.768e-01 16.0585 n n n n n n     
    2   18    0  1.876e-01  6.231e-01 15.9721 n n n n n n     
    3   24    0  1.457e-01  4.236e-01 15.8866 n n n n n n     
    4   30    0  1.034e-01  2.904e-01 15.7679 n n n n n n     
    5   12    0  1.119e-01  3.789e-01 15.7411 n n n n n n     Subspace collapsed.
    6   18    0  9.768e-02  2.637e-01 15.6733 n n n n n n     
    7   24    0  8.500e-02  2.743e-01 15.6156 n n n n n n     
    8   30    0  9.195e-02  3.162e-01 15.5930 n n n n n n     
    9   12    0  9.324e-02  2.513e-01 15.5374 n n n n n n     Subspace collapsed.
   10   18    0  8.436e-02  2.615e-01 15.4650 n n n n n n     
   11   24    0  8.255e-02  2.798e-01 15.4406 n n n n n n     
   12   30    0  8.039e-02  2.958e-01 15.4059 n n n n n n     
   13   12    0  5.708e-02  2.119e-01 15.3767 n n n n n n     Subspace collapsed.
   14   18    0  3.942e-02  1.411e-01 15.3561 n n n n n n     
   15   24    0  2.544e-02  8.269e-02 15.3483 n n n n n n     
   16   30    0  2.045e-02  1.050e-01 15.3446 n n n n n n     
   17   12    0  9.418e-03  4.681e-02 15.3439 n n n n n n     Subspace collapsed.
   18   18    0  7.244e-03  3.648e-02 15.3436 n n n n n n     
   19   24    0  4.022e-03  2.050e-02 15.3435 n n n n n n     
   20   30    0  2.187e-03  1.125e-02 15.3435 n n n n n n     
   21   12    0  1.243e-03  6.473e-03 15.3435 n n n n n n     Subspace collapsed.
   22   18    0  1.102e-03  5.922e-03 15.3435 n n n n n n     
   23   24    0  6.818e-04  3.785e-03 15.3435 n n n n n n     
   24   30    0  4.417e-04  2.467e-03 15.3435 n n n n n n     
   25   12    0  2.131e-04  1.187e-03 15.3435 n n n n n n     Subspace collapsed.
   26   18    0  1.611e-04  8.960e-04 15.3435 n n n n n n     
   27   24    0  8.837e-05  4.961e-04 15.3435 n n n n n n     
   28   30    0  6.285e-05  3.556e-04 15.3435 n n n n n n     
   29   12    0  3.625e-05  2.064e-04 15.3435 n n n n n n     Subspace collapsed.
   30   18    0  3.786e-05  2.181e-04 15.3435 n n n n n n     
   31   24    0  2.368e-05  1.376e-04 15.3435 n n n n n n     
   32   30    0  1.692e-05  9.853e-05 15.3435 n n n n n n     
   33   12    2  7.328e-06  4.261e-05 15.3435 y y n n n n     Subspace collapsed.
   34   18    2  6.232e-06  3.625e-05 15.3435 y y n n n n     
   35   24    3  3.238e-06  1.889e-05 15.3435 y y y n n n     
   36   30    3  3.041e-06  1.783e-05 15.3435 y y y n n n     
   37   12    4  1.609e-06  9.445e-06 15.3435 y y y y n n     Subspace collapsed.
   38   18    4  1.682e-06  9.903e-06 15.3435 y y y y n n     
   39   24    4  9.859e-07  5.825e-06 15.3435 y y y y n n     
   40   30    5  8.120e-07  4.805e-06 15.3435 y y y y y n     
   41   12    5  3.498e-07  2.070e-06 15.3435 y y y y y n     Subspace collapsed.
   42   18    5  3.264e-07  1.934e-06 15.3435 y y y y y n     
   43   24    5  1.998e-07  1.187e-06 15.3435 y y y y y n     
   44   30    5  1.815e-07  1.080e-06 15.3435 y y y y y n     
   45   12    6  8.813e-08  5.242e-07 15.3435 y y y y y y     Converged.
--------------------------------------------------------------------------------
  Davidson Summary: 
 ------------------------------------------------------------
  State  0: excitation energy =  15.3435 a.u.   (converged)
  State  1: excitation energy =  15.3538 a.u.   (converged)
  State  2: excitation energy =  15.3609 a.u.   (converged)
  State  3: excitation energy =  15.3676 a.u.   (converged)
  State  4: excitation energy =  15.3823 a.u.   (converged)
  State  5: excitation energy =  15.3890 a.u.   (converged)
 ------------------------------------------------------------

  Starting Davidson ... 
--------------------------------------------------------------------------------
   It NVec Conv  Avg. Norm  Max. Norm  Conv. states           Remark
--------------------------------------------------------------------------------
         6    0  4.000e-01  1.001e+00 15.5853 n n n n n n     Guess.
    1   12    0  2.778e-01  8.764e-01 15.4690 n n n n n n     
    2   18    0  1.769e-01  6.308e-01 15.3128 n n n n n n     
    3   24    0  9.929e-02  3.067e-01 15.2246 n n n n n n     
    4   30    0  6.870e-02  2.421e-01 15.1930 n n n n n n     
    5   12    0  5.543e-02  2.291e-01 15.1868 n n n n n n     Subspace collapsed.
    6   18    0  6.566e-02  2.905e-01 15.1856 n n n n n n     
    7   24    0  3.554e-02  1.513e-01 15.1855 n n n n n n     
    8   30    0  1.881e-02  8.173e-02 15.1855 n n n n n n     
    9   12    0  1.022e-02  4.827e-02 15.1855 n n n n n n     Subspace collapsed.
   10   18    0  9.890e-03  5.464e-02 15.1855 n n n n n n     
   11   24    0  1.784e-02  1.020e-01 15.1855 n n n n n n     
   12   30    0  9.666e-03  5.473e-02 15.1855 n n n n n n     
   13   12    0  5.177e-03  3.004e-02 15.1855 n n n n n n     Subspace collapsed.
   14   18    0  4.029e-03  2.349e-02 15.1855 n n n n n n     
   15   24    0  2.535e-03  1.488e-02 15.1855 n n n n n n     
   16   30    1  2.071e-03  1.225e-02 15.1855 y n n n n n     
   17   12    2  1.374e-03  8.167e-03 15.1855 y y n n n n     Subspace collapsed.
   18   18    2  1.373e-03  8.138e-03 15.1855 y y n n n n     
   19   24    2  1.077e-03  6.351e-03 15.1855 y y n n n n     
   20   30    3  1.009e-03  5.947e-03 15.1855 y y y n n n     
   21   12    3  4.787e-04  2.823e-03 15.1855 y y y n n n     Subspace collapsed.
   22   18    3  4.031e-04  2.373e-03 15.1855 y y y n n n     
   23   24    3  2.960e-04  1.733e-03 15.1855 y y y n n n     
   24   30    4  2.897e-04  1.702e-03 15.1855 y y y y n n     
   25   12    4  1.862e-04  1.092e-03 15.1855 y y y y n n     Subspace collapsed.
   26   18    4  1.944e-04  1.140e-03 15.1855 y y y y n n     
   27   24    4  1.413e-04  8.142e-04 15.1855 y y y y n n     
   28   30    4  1.429e-04  8.166e-04 15.1855 y y y y n n     
   29   12    4  7.653e-05  4.359e-04 15.1855 y y y y n n     Subspace collapsed.
   30   18    4  6.175e-05  3.523e-04 15.1855 y y y y n n     
   31   24    4  4.555e-05  2.563e-04 15.1855 y y y y n n     
   32   29    4  5.315e-05  2.910e-04 15.1855 y y y y n n     
   33   30    4  5.470e-05  2.948e-04 15.1855 y y y y n n     
   34   10    4  2.794e-05  1.517e-04 15.1855 y y y y n n     Subspace collapsed.
   35   14    4  2.419e-05  1.302e-04 15.1855 y y y y n n     
   36   18    4  1.752e-05  8.912e-05 15.1855 y y y y n n     
   37   22    4  2.039e-05  9.912e-05 15.1855 y y y y n n     
   38   26    4  1.495e-05  6.542e-05 15.1855 y y y y n n     
   39   30    4  9.410e-06  4.256e-05 15.1855 y y y y n n     
   40    9    4  4.170e-06  1.950e-05 15.1855 y y y y n n     Subspace collapsed.
   41   12    4  3.631e-06  1.758e-05 15.1855 y y y y n n     
   42   15    4  2.179e-06  1.094e-05 15.1855 y y y y n n     
   43   18    4  1.607e-06  8.189e-06 15.1855 y y y y n n     
   44   21    4  1.129e-06  5.782e-06 15.1855 y y y y n n     
   45   23    4  8.898e-07  4.682e-06 15.1855 y y y y n n     
   46   25    4  1.161e-06  6.364e-06 15.1855 y y y y n n     
   47   27    4  1.158e-06  6.582e-06 15.1855 y y y y n n     
   48   29    5  6.377e-07  3.698e-06 15.1855 y y y y y n     
   49   30    5  4.010e-07  2.347e-06 15.1855 y y y y y n     
   50    8    6  1.695e-07  9.904e-07 15.1855 y y y y y y     Converged.
--------------------------------------------------------------------------------
  Davidson Summary: 
 ------------------------------------------------------------
  State  0: excitation energy =  15.1855 a.u.   (converged)
  State  1: excitation energy =  15.2080 a.u.   (converged)
  State  2: excitation energy =  15.2841 a.u.   (converged)
  State  3: excitation energy =  15.3084 a.u.   (converged)
  State  4: excitation energy =  15.3854 a.u.   (converged)
  State  5: excitation energy =  15.3966 a.u.   (converged)
 ------------------------------------------------------------

  Starting Davidson ... 
--------------------------------------------------------------------------------
   It NVec Conv  Avg. Norm  Max. Norm  Conv. states           Remark
--------------------------------------------------------------------------------
         6    0  4.064e-01  1.014e+00 15.1751 n n n n n n     Guess.
    1   12    0  2.233e-01  9.448e-01 14.9030 n n n n n n     
    2   18    0  1.137e-01  4.838e-01 14.8830 n n n n n n     
    3   24    0  4.719e-02  1.903e-01 14.8811 n n n n n n     
    4   30    0  6.371e-02  3.723e-01 14.8807 n n n n n n     
    5   12    0  3.275e-02  1.929e-01 14.8806 n n n n n n     Subspace collapsed.
    6   18    0  9.824e-03  5.392e-02 14.8806 n n n n n n     
    7   24    0  3.608e-03  1.347e-02 14.8806 n n n n n n     
    8   30    0  1.694e-03  5.710e-03 14.8806 n n n n n n     
    9   12    0  7.680e-04  2.896e-03 14.8806 n n n n n n     Subspace collapsed.
   10   18    0  4.918e-04  2.052e-03 14.8806 n n n n n n     
   11   24    0  3.561e-04  1.509e-03 14.8806 n n n n n n     
   12   30    1  2.480e-04  1.190e-03 14.8806 y n n n n n     
   13   12    1  1.364e-04  6.011e-04 14.8806 y n n n n n     Subspace collapsed.
   14   18    1  1.086e-04  5.519e-04 14.8806 y n n n n n     
   15   24    1  6.679e-05  3.545e-04 14.8806 y n n n n n     
   16   30    2  5.658e-05  3.139e-04 14.8806 y y n n n n     
   17   12    2  2.917e-05  1.618e-04 14.8806 y y n n n n     Subspace collapsed.
   18   18    2  2.357e-05  1.325e-04 14.8806 y y n n n n     
   19   24    2  1.474e-05  8.412e-05 14.8806 y y n n n n     
   20   30    2  1.145e-05  6.623e-05 14.8806 y y n n n n     
   21   12    3  6.417e-06  3.710e-05 14.8806 y y y n n n     Subspace collapsed.
   22   18    3  6.223e-06  3.628e-05 14.8806 y y y n n n     
   23   24    4  3.388e-06  1.986e-05 14.8806 y y y y n n     
   24   30    4  3.120e-06  1.840e-05 14.8806 y y y y n n     
   25   11    4  1.495e-06  8.819e-06 14.8806 y y y y n n     Subspace collapsed.
   26   16    4  1.323e-06  7.831e-06 14.8806 y y y y n n     
   27   21    5  7.217e-07  4.287e-06 14.8806 y y y y y n     
   28   26    5  6.495e-07  3.864e-06 14.8806 y y y y y n     
   29   30    5  4.346e-07  2.594e-06 14.8806 y y y y y n     
   30   10    6  1.547e-07  9.231e-07 14.8806 y y y y y y     Converged.
--------------------------------------------------------------------------------
  Davidson Summary: 
 ------------------------------------------------------------
  State  0: excitation energy =  14.8806 a.u.   (converged)
  State  1: excitation energy =  15.0154 a.u.   (converged)
  State  2: excitation energy =  15.2547 a.u.   (converged)
  State  3: excitation energy =  15.2610 a.u.   (converged)
  State  4: excitation energy =  15.2701 a.u.   (converged)
  State  5: excitation energy =  15.2890 a.u.   (converged)
 ------------------------------------------------------------

  Starting Davidson ... 
--------------------------------------------------------------------------------
   It NVec Conv  Avg. Norm  Max. Norm  Conv. states           Remark
--------------------------------------------------------------------------------
         6    0  4.123e-01  1.022e+00 15.7159 n n n n n n     Guess.
    1   12    0  2.558e-01  8.472e-01 15.3908 n n n n n n     
    2   18    0  1.440e-01  6.018e-01 15.3248 n n n n n n     
    3   24    0  8.925e-02  3.922e-01 15.3174 n n n n n n     
    4   30    0  9.841e-02  4.394e-01 15.3158 n n n n n n     
    5   12    0  6.809e-02  2.611e-01 15.2252 n n n n n n     Subspace collapsed.
    6   18    0  7.389e-02  3.807e-01 15.1690 n n n n n n     
    7   24    0  2.627e-02  1.191e-01 15.1356 n n n n n n     
    8   30    0  9.935e-03  3.664e-02 15.1280 n n n n n n     
    9   12    0  4.102e-03  1.476e-02 15.1274 n n n n n n     Subspace collapsed.
[...]
  <i|r^2|0> [a.u.]:                    [  -0.000000,   -0.000000,   -0.000000]

  V1^2 = 0.0000, V2^2 = 1.0000

  Important amplitudes:
      core i       occ j       vir a        vir b           v   
    -------------------------------------------------------------
     1 (B2u) B   2 (B1u) B    6 (Ag ) B    5 (B3u) B      0.3416
     1 (B2u) B   4 (B3u) A    2 (B1u) A    6 (Ag ) B      0.3318
    -------------------------------------------------------------
  ----------------------------------------------------------------------------


  Excited state 38 (Au)                                            [converged]
  ----------------------------------------------------------------------------
  Term symbol:  4 (-) B1g                                   R^2 =  9.72206e-09

  Total energy:                                           -248.0147428376 a.u.
  Excitation energy:                                             418.173358 eV

  Osc. strength:                                                      0.000000
  Trans. dip. moment [a.u.]:           [   0.000000,   -0.000000,    0.000000]
  <i|r^2|0> [a.u.]:                    [  -0.000000,   -0.000000,   -0.000000]

  V1^2 = 0.0000, V2^2 = 1.0000

  Important amplitudes:
      core i       occ j       vir a        vir b           v   
    -------------------------------------------------------------
     1 (B2u) B   4 (B3u) A    2 (B1u) A    6 (Ag ) B     -0.5654
     1 (B2u) B   2 (B1u) B    6 (Ag ) B    5 (B3u) B      0.2091
    -------------------------------------------------------------
  ----------------------------------------------------------------------------


  Excited state 39 (B3g)                                           [converged]
  ----------------------------------------------------------------------------
  Term symbol:  6 (-) B2u                                   R^2 =  9.35456e-07

  Total energy:                                           -248.0130773543 a.u.
  Excitation energy:                                             418.218678 eV

  Osc. strength:                                                      0.000000
  Trans. dip. moment [a.u.]:           [  -0.000000,   -0.000000,   -0.000000]
  <i|r^2|0> [a.u.]:                    [  -0.000000,    0.000000,    0.000000]

  V1^2 = 0.0000, V2^2 = 1.0000

  Important amplitudes:
      core i       occ j       vir a        vir b           v   
    -------------------------------------------------------------
     1 (B2u) B   2 (B1u) B    6 (Ag ) B    7 (Ag ) B     -0.5397
     1 (B2u) B   1 (B2g) B    6 (Ag ) B    5 (B3u) B     -0.2090
    -------------------------------------------------------------
  ----------------------------------------------------------------------------


  Excited state 40 (B2g)                                           [converged]
  ----------------------------------------------------------------------------
  Term symbol:  5 (-) B3u                                   R^2 =  4.20344e-07

  Total energy:                                           -248.0117925434 a.u.
  Excitation energy:                                             418.253640 eV

  Osc. strength:                                                      0.000000
  Trans. dip. moment [a.u.]:           [  -0.000000,   -0.000000,   -0.000000]
  <i|r^2|0> [a.u.]:                    [   0.000000,    0.000000,    0.000000]

  V1^2 = 0.0001, V2^2 = 0.9999

  Important amplitudes:
      core i       occ j       vir a        vir b           v   
    -------------------------------------------------------------
     1 (B2u) B   6 (Ag ) A    1 (Au ) A    6 (Ag ) B     -0.6024
     1 (B2u) A   2 (B1u) B    2 (B1u) A    1 (Au ) B     -0.1587
    -------------------------------------------------------------
  ----------------------------------------------------------------------------


  Excited state 41 (B1g)                                           [converged]
  ----------------------------------------------------------------------------
  Term symbol:  5 (-) Au                                    R^2 =  1.28313e-09

  Total energy:                                           -248.0107181829 a.u.
  Excitation energy:                                             418.282875 eV

  Osc. strength:                                                      0.000000
  Trans. dip. moment [a.u.]:           [   0.000000,   -0.000000,    0.000000]
  <i|r^2|0> [a.u.]:                    [  -0.000000,    0.000000,   -0.000000]

  V1^2 = 0.7870, V2^2 = 0.2130

  Important amplitudes:
      core i       occ j       vir a        vir b           v   
    -------------------------------------------------------------
     1 (B2u) A                6 (B3u) A                   0.6810
     1 (B2u) B                6 (B3u) B                  -0.4736
    -------------------------------------------------------------
  ----------------------------------------------------------------------------


  Excited state 42 (B2g)                                           [converged]
  ----------------------------------------------------------------------------
  Term symbol:  6 (-) B3u                                   R^2 =  5.89033e-07

  Total energy:                                           -248.0069079915 a.u.
  Excitation energy:                                             418.386555 eV

  Osc. strength:                                                      0.000000
  Trans. dip. moment [a.u.]:           [  -0.000000,    0.000000,   -0.000000]
  <i|r^2|0> [a.u.]:                    [  -0.000000,    0.000000,    0.000000]

  V1^2 = 0.0111, V2^2 = 0.9889

  Important amplitudes:
      core i       occ j       vir a        vir b           v   
    -------------------------------------------------------------
     1 (B2u) A   2 (B1u) B    2 (B1u) A    1 (Au ) B     -0.5763
     1 (B2u) A   1 (B2g) B    2 (B1u) A    2 (B3g) B     -0.1854
    -------------------------------------------------------------
  ----------------------------------------------------------------------------


  Excited state 43 (Au)                                            [converged]
  ----------------------------------------------------------------------------
  Term symbol:  5 (-) B1g                                   R^2 =  6.89945e-08

  Total energy:                                           -248.0000036318 a.u.
  Excitation energy:                                             418.574433 eV

  Osc. strength:                                                      0.000000
  Trans. dip. moment [a.u.]:           [  -0.000000,    0.000000,   -0.000000]
  <i|r^2|0> [a.u.]:                    [  -0.000000,   -0.000000,   -0.000000]

  V1^2 = 0.0000, V2^2 = 1.0000

  Important amplitudes:
      core i       occ j       vir a        vir b           v   
    -------------------------------------------------------------
     1 (B2u) B   1 (B2g) A    8 (Ag ) A    6 (Ag ) B     -0.5822
     1 (B2u) B   2 (B1u) B    6 (Ag ) B    5 (B3u) B      0.2054
    -------------------------------------------------------------
  ----------------------------------------------------------------------------


  Excited state 44 (B1u)                                           [converged]
  ----------------------------------------------------------------------------
  Term symbol:  6 (-) Ag                                    R^2 =  2.32478e-07

  Total energy:                                           -247.9969456617 a.u.
  Excitation energy:                                             418.657644 eV

  Osc. strength:                                                      0.000001
  Trans. dip. moment [a.u.]:           [  -0.000000,   -0.000000,    0.000263]
  <i|r^2|0> [a.u.]:                    [  -0.000000,   -0.000000,   -0.000000]

  V1^2 = 0.0001, V2^2 = 0.9999

  Important amplitudes:
      core i       occ j       vir a        vir b           v   
    -------------------------------------------------------------
     1 (B2u) A   2 (B1u) B    6 (B2u) A    6 (Ag ) B     -0.5361
     1 (B2u) A   1 (B2g) B    4 (B1g) A    6 (Ag ) B     -0.2805
    -------------------------------------------------------------
  ----------------------------------------------------------------------------


  Excited state 45 (Au)                                            [converged]
  ----------------------------------------------------------------------------
  Term symbol:  6 (-) B1g                                   R^2 =  5.24161e-07

  Total energy:                                           -247.9933311594 a.u.
  Excitation energy:                                             418.756000 eV

  Osc. strength:                                                      0.000000
  Trans. dip. moment [a.u.]:           [  -0.000000,   -0.000000,   -0.000000]
  <i|r^2|0> [a.u.]:                    [  -0.000000,   -0.000000,   -0.000000]

  V1^2 = 0.0000, V2^2 = 1.0000

  Important amplitudes:
      core i       occ j       vir a        vir b           v   
    -------------------------------------------------------------
     1 (B2u) A   1 (B2g) B    8 (Ag ) A    6 (Ag ) B     -0.3900
     1 (B2u) A   2 (B1u) B    6 (B3u) A    6 (Ag ) B      0.3032
    -------------------------------------------------------------
  ----------------------------------------------------------------------------


  Excited state 46 (B1g)                                           [converged]
  ----------------------------------------------------------------------------
  Term symbol:  6 (-) Au                                    R^2 =  7.02078e-07

  Total energy:                                           -247.9904482896 a.u.
  Excitation energy:                                             418.834447 eV

  Osc. strength:                                                      0.000000
  Trans. dip. moment [a.u.]:           [  -0.000000,   -0.000000,    0.000000]
  <i|r^2|0> [a.u.]:                    [   0.000000,   -0.000000,    0.000000]

  V1^2 = 0.6540, V2^2 = 0.3460

  Important amplitudes:
      core i       occ j       vir a        vir b           v   
    -------------------------------------------------------------
     1 (B2u) B                6 (B3u) B                  -0.5942
     1 (B2u) A                6 (B3u) A                  -0.4864
    -------------------------------------------------------------
  ----------------------------------------------------------------------------


  Excited state 47 (B1u)                                           [converged]
  ----------------------------------------------------------------------------
  Term symbol:  7 (-) Ag                                    R^2 =  9.90360e-07

  Total energy:                                           -247.9857753964 a.u.
  Excitation energy:                                             418.961603 eV

  Osc. strength:                                                      0.000236
  Trans. dip. moment [a.u.]:           [  -0.000000,   -0.000000,    0.004797]
  <i|r^2|0> [a.u.]:                    [  -0.000000,   -0.000000,   -0.000000]

  V1^2 = 0.0133, V2^2 = 0.9867

  Important amplitudes:
      core i       occ j       vir a        vir b           v   
    -------------------------------------------------------------
     1 (B2u) A   1 (B2g) A    1 (Au ) A    2 (B1u) A     -0.3852
     1 (B2u) A   4 (B3u) B    1 (Au ) A    6 (Ag ) B      0.3760
    -------------------------------------------------------------
  ----------------------------------------------------------------------------


  Excited state 48 (B3u)                                           [converged]
  ----------------------------------------------------------------------------
  Term symbol:  6 (-) B2g                                   R^2 =  9.50818e-07

  Total energy:                                           -247.9729556535 a.u.
  Excitation energy:                                             419.310445 eV

  Osc. strength:                                                      0.000001
  Trans. dip. moment [a.u.]:           [  -0.000305,   -0.000000,    0.000000]
  <i|r^2|0> [a.u.]:                    [   0.000000,    0.000000,    0.000000]

  V1^2 = 0.0049, V2^2 = 0.9951

  Important amplitudes:
      core i       occ j       vir a        vir b           v   
    -------------------------------------------------------------
     1 (B2u) A   1 (B2g) B    2 (B3g) A    6 (Ag ) B     -0.5750
     1 (B2u) A   2 (B1u) B    1 (Au ) A    6 (Ag ) B     -0.2214
    -------------------------------------------------------------
  ----------------------------------------------------------------------------


--------------------------------------------------------------------------------
  Time of ADC calculation:  CPU 5502.21 s  wall 1044.87 s
================================================================================
 
 --------------------------------------------------------------
             Orbital Energies (a.u.) and Symmetries
 --------------------------------------------------------------
 
 Alpha MOs, Unrestricted
 -- Occupied --                  
-15.594 -15.594 -11.289 -11.289 -11.288 -11.288  -1.293  -1.206
  1 B2u   1 Ag    1 B3u   2 Ag    2 B2u   1 B1g   3 Ag    3 B2u                
 -1.050  -0.902  -0.886  -0.734  -0.701  -0.679  -0.612  -0.549
  2 B3u   4 Ag    2 B1g   5 Ag    3 B3u   4 B2u   4 B3u   3 B1g                
 -0.546  -0.539  -0.446  -0.398  -0.348
  1 B1u   5 B2u   6 Ag    1 B3g   1 B2g                                        
 -- Virtual --                   
  0.119   0.133   0.253   0.277   0.301   0.314   0.353   0.353
  2 B1u   1 Au    7 Ag    5 B3u   6 B2u   4 B1g   8 Ag    2 B3g                
  0.469   0.491   0.493   0.619   0.683   0.700   0.733   0.744
  6 B3u   5 B1g   7 B2u   8 B2u   6 B1g   7 B3u   9 Ag    3 B1u                
  0.802   0.820   0.823   0.841   0.848   0.887   0.906   0.950
  2 B2g  10 Ag    8 B3u  11 Ag    3 B3g   2 Au    9 B2u   7 B1g                
  1.049   1.058   1.070   1.085   1.091   1.106   1.158   1.173
 10 B2u  12 Ag    8 B1g   9 B3u   4 B1u  11 B2u   4 B3g  13 Ag                 
  1.207   1.244   1.275   1.345   1.349   1.478   1.502   1.558
 10 B3u  12 B2u   9 B1g  13 B2u  10 B1g  11 B3u   3 B2g  14 Ag                 
  1.633   1.736   1.751   1.784   1.785   1.792   1.928   2.020
  5 B1u  11 B1g   6 B1u   5 B3g   3 Au    4 B2g  14 B2u  15 Ag                 
  2.071   2.139   2.157   2.290   2.352   2.426   2.479   2.528
 16 Ag   15 B2u  12 B3u  13 B3u  17 Ag    4 Au   14 B3u  12 B1g                
  2.531   2.555   2.600   2.668   2.745   2.825   2.875   2.917
 16 B2u   7 B1u   6 B3g   5 B2g   7 B3g  18 Ag   13 B1g  17 B2u                
  3.028   3.055   3.074   3.081   3.163   3.414   3.722   4.281
 19 Ag    5 Au   18 B2u  14 B1g  15 B3u  15 B1g  19 B2u  20 Ag                 
  4.489   4.542   4.603   4.731   4.904
 16 B3u  21 Ag   20 B2u  16 B1g  21 B2u                                        
 
 Beta MOs, Unrestricted
 -- Occupied --                  
-15.596 -15.596 -11.288 -11.288 -11.287 -11.287  -1.295  -1.210
  1 B2u   1 Ag    1 B3u   2 Ag    1 B1g   2 B2u   3 Ag    3 B2u                
 -1.045  -0.888  -0.875  -0.700  -0.676  -0.669  -0.613  -0.591
  2 B3u   4 Ag    2 B1g   5 Ag    3 B3u   4 B2u   1 B1u   4 B3u                
 -0.543  -0.521  -0.391  -0.348  -0.230
  3 B1g   1 B3g   1 B2g   5 B2u   2 B1u                                        
 -- Virtual --                   
 -0.083   0.137   0.261   0.275   0.279   0.303   0.314   0.345
  6 Ag    1 Au    7 Ag    2 B3g   5 B3u   6 B2u   4 B1g   8 Ag                 
  0.473   0.488   0.504   0.629   0.684   0.726   0.735   0.738
  6 B3u   5 B1g   7 B2u   8 B2u   6 B1g   7 B3u   3 B1u   9 Ag                 
  0.795   0.822   0.825   0.843   0.884   0.885   0.919   0.977
  2 B2g   8 B3u  10 Ag    3 B3g   2 Au   11 Ag    9 B2u   7 B1g                
  1.023   1.073   1.079   1.079   1.088   1.101   1.106   1.177
  4 B1u   8 B1g  10 B2u  12 Ag    9 B3u   4 B3g  11 B2u  13 Ag                 
  1.206   1.251   1.276   1.350   1.356   1.486   1.486   1.552
 10 B3u  12 B2u   9 B1g  10 B1g  13 B2u   3 B2g  11 B3u  14 Ag                 
  1.629   1.741   1.751   1.763   1.781   1.784   1.938   2.022
  5 B1u  11 B1g   6 B1u   3 Au    5 B3g   4 B2g  14 B2u  15 Ag                 
  2.081   2.152   2.169   2.295   2.356   2.419   2.482   2.518
 16 Ag   15 B2u  12 B3u  13 B3u  17 Ag    4 Au   14 B3u  16 B2u                
  2.537   2.546   2.601   2.645   2.738   2.819   2.878   2.914
 12 B1g   7 B1u   6 B3g   5 B2g   7 B3g  18 Ag   13 B1g  17 B2u                
  3.036   3.044   3.074   3.092   3.181   3.427   3.734   4.285
 19 Ag    5 Au   18 B2u  14 B1g  15 B3u  15 B1g  19 B2u  20 Ag                 
  4.490   4.544   4.605   4.731   4.908
 16 B3u  21 Ag   20 B2u  16 B1g  21 B2u                                        
 --------------------------------------------------------------
 
          Ground-State Mulliken Net Atomic Charges

     Atom                 Charge (a.u.)    Spin (a.u.)
  --------------------------------------------------------
      1 C                    -0.004266      -0.011093
      2 C                    -0.004266      -0.011093
      3 N                    -0.463067      -0.052251
      4 N                    -0.463067      -0.052251
      5 C                    -0.004266      -0.011093
      6 C                    -0.004266      -0.011093
      7 H                     0.235799       0.037219
      8 H                     0.235799       0.037219
      9 H                     0.235799       0.037219
     10 H                     0.235799       0.037219
  --------------------------------------------------------
  Sum of atomic charges =     0.000000
  Sum of spin   charges =     0.000000

 -----------------------------------------------------------------
                    Cartesian Multipole Moments
 -----------------------------------------------------------------
    Charge (ESU x 10^10)
                 0.0000
    Dipole Moment (Debye)
         X       0.0000      Y       0.0000      Z       0.0000
       Tot       0.0000
    Quadrupole Moments (Debye-Ang)
        XX     -25.8350     XY       0.0000     YY     -37.8062
        XZ       0.0000     YZ       0.0000     ZZ     -37.7918
    Octopole Moments (Debye-Ang^2)
       XXX       0.0000    XXY       0.0000    XYY       0.0000
       YYY       0.0000    XXZ       0.0000    XYZ       0.0000
       YYZ       0.0000    XZZ       0.0000    YZZ       0.0000
       ZZZ       0.0000
    Hexadecapole Moments (Debye-Ang^3)
      XXXX    -219.5461   XXXY       0.0000   XXYY     -65.2025
      XYYY       0.0000   YYYY    -275.6142   XXXZ       0.0000
      XXYZ       0.0000   XYYZ       0.0000   YYYZ       0.0000
      XXZZ     -55.4930   XYZZ       0.0000   YYZZ     -51.6185
      XZZZ       0.0000   YZZZ       0.0000   ZZZZ     -38.3073
 -----------------------------------------------------------------
Archival summary:
1\1\tp-linux1\SP\HF\6-31G*\244\thomas\WedJan2515:34:542017WedJan2515:34:542017\0\\#,HF,6-31G*,\\0,1\N\C,1,1.34606\H,2,1.0834,1,116.808\C,1,1.34606,2,115.185,3,180,0\H,4,1.0834,1,116.808,2,-180,0\C,2,1.39225,1,122.408,3,-180,0\H,6,1.0834,2,120.785,1,-180,0\N,6,1.34606,2,122.408,1,0,0\C,8,1.34606,6,115.185,2,0,0\H,9,1.0834,8,116.808,6,-180,0\\HF=-262.503951\\@

 Total job time:  1048.18s(wall), 5514.40s(cpu) 
 Wed Jan 25 15:34:54 2017

        *************************************************************
        *                                                           *
        *  Thank you very much for using Q-Chem.  Have a nice day.  *
        *                                                           *
        *************************************************************


0 sent ACK to 0 
now end server 0 ... 
cleanup process ... done
remove work dirs /scratch/qchem/qchem19339.0 -- /scratch/qchem/qchem19339.0
rm -rf /scratch/qchem/qchem19339.0
rm -rf /scratch/qchem/qchem19339
