
Running Job 1 of 3 cvs-adc-mom-s1.inp
qchem cvs-adc-mom-s1.inp_23937.0 /scratch/qchem/qchem23937/ 1
/mnt/software/qchem/bin/mpi/mpirun_qchem -machinefile /mnt/software/qchem/bin/mpi/machines -np 1 /mnt/software/qchem/exe/qcprog.exe cvs-adc-mom-s1.inp_23937.0 /scratch/qchem/qchem23937/

Process 0 of 1 is on tp-linux1 - thread support 0
initial socket setup ...start
initial socket setup ...done 
now start server 0 ... 

cmd = ssh tp-linux1 /mnt/software/qchem/bin/get_hostid 583800709 > /scratch/qchem/qchem23937/lic.dat
                  Welcome to Q-Chem
     A Quantum Leap Into The Future Of Chemistry


 Q-Chem 4.3, Q-Chem, Inc., Pleasanton, CA (2015)

 Y. Shao,  Z. Gan,  E. Epifanovsky,  A. T. B. Gilbert,  M. Wormit,  
 J. Kussmann,  A. W. Lange,  A. Behn,  J. Deng,  X. Feng,  D. Ghosh,  
 M. Goldey,  P. R. Horn,  L. D. Jacobson,  I. Kaliman,  R. Z. Khaliullin,  
 T. Kus,  A. Landau,  J. Liu,  E. I. Proynov,  Y. M. Rhee,  R. M. Richard,  
 M. A. Rohrdanz,  R. P. Steele,  E. J. Sundstrom,  H. L. Woodcock III,  
 P. M. Zimmerman,  D. Zuev,  B. Albrecht,  E. Alguire,  B. Austin,  
 S. A. Baeppler,  G. J. O. Beran,  Y. A. Bernard,  E. Berquist,  
 K. Brandhorst,  K. B. Bravaya,  S. T. Brown,  D. Casanova,  C.-M. Chang,  
 Y. Chen,  S. H. Chien,  K. D. Closser,  D. L. Crittenden,  M. Diedenhofen,  
 R. A. DiStasio Jr.,  H. Do,  A. D. Dutoi,  R. G. Edgar,  P.-T. Fang,  
 S. Fatehi,  Q. Feng,  L. Fusti-Molnar,  A. Ghysels,  
 A. Golubeva-Zadorozhnaya,  J. Gomes,  A. Gunina,  M. W. D. Hanson-Heine,  
 P. H. P. Harbach,  A. W. Hauser,  E. G. Hohenstein,  Z. C. Holden,  K. Hui,  
 T.-C. Jagau,  H. Ji,  B. Kaduk,  K. Khistyaev,  Jaehoon Kim,  Jihan Kim,  
 R. A. King,  P. Klunzinger,  D. Kosenkov,  T. Kowalczyk,  C. M. Krauter,  
 K. U. Lao,  A. Laurent,  K. V. Lawler,  S. Lehtola,  S. V. Levchenko,  
 C. Y. Lin,  Y.-S. Lin,  F. Liu,  E. Livshits,  R. C. Lochan,  A. Luenser,  
 P. Manohar,  S. F. Manzer,  S.-P. Mao,  N. Mardirossian,  A. V. Marenich,  
 L. A. Martinez-Martinez,  S. A. Maurer,  N. J. Mayhall,  K. Nanda,  
 C. M. Oana,  R. Olivares-Amaya,  D. P. O'Neill,  J. A. Parkhill,  
 T. M. Perrine,  R. Peverati,  P. A. Pieniazek,  F. Plasser,  A. Prociuk,  
 D. R. Rehn,  E. Rosta,  N. J. Russ,  N. Sergueev,  S. M. Sharada,  
 S. Sharma,  D. W. Small,  A. Sodt,  T. Stauch,  T. Stein,  D. Stuck,  
 Y.-C. Su,  A. J. W. Thom,  T. Tsuchimochi,  L. Vogt,  O. Vydrov,  T. Wang,  
 M. A. Watson,  J. Wenzel,  A. White,  C. F. Williams,  V. Vanovschi,  
 S. Yeganeh,  S. R. Yost,  Z.-Q. You,  I. Y. Zhang,  X. Zhang,  Y. Zhao,  
 B. R. Brooks,  G. K. L. Chan,  D. M. Chipman,  C. J. Cramer,  
 W. A. Goddard III,  M. S. Gordon,  W. J. Hehre,  A. Klamt,  
 H. F. Schaefer III,  M. W. Schmidt,  C. D. Sherrill,  D. G. Truhlar,  
 A. Warshel,  X. Xu,  A. Aspuru-Guzik,  R. Baer,  A. T. Bell,  N. A. Besley,  
 J.-D. Chai,  A. Dreuw,  B. D. Dunietz,  T. R. Furlani,  S. R. Gwaltney,  
 C.-P. Hsu,  Y. Jung,  J. Kong,  D. S. Lambrecht,  W. Liang,  C. Ochsenfeld,  
 V. A. Rassolov,  L. V. Slipchenko,  J. E. Subotnik,  T. Van Voorhis,  
 J. M. Herbert,  A. I. Krylov,  P. M. W. Gill,  M. Head-Gordon

 Contributors to earlier versions of Q-Chem not listed above: 
 R. D. Adamson,  J. Baker,  E. F. C. Byrd,  A. K. Chakraborty,  C.-L. Cheng,  
 H. Dachsel,  R. J. Doerksen,  G. Hawkins,  A. Heyden,  S. Hirata,  
 G. Kedziora,  F. J. Keil,  C. Kelley,  P. P. Korambath,  W. Kurlancheek,  
 A. M. Lee,  M. S. Lee,  D. Liotard,  I. Lotan,  P. E. Maslen,  N. Nair,  
 D. Neuhauser,  R. Olson,  B. Peters,  J. Ritchie,  N. E. Schultz,  
 N. Shenvi,  A. C. Simmonett,  K. S. Thanthiriwatte,  Q. Wu,  W. Zhang

 Please cite Q-Chem as follows:
 Y. Shao et al., Mol. Phys. 113, 184-215 (2015)
 DOI: 10.1080/00268976.2014.952696

 Q-Chem 4.3.0 for Intel X86 Linux

 Parts of Q-Chem use Armadillo 5.200.1 (Boston Tea Smuggler).
 http://arma.sourceforge.net/

 Q-Chem begins on Wed Mar  1 23:39:37 2017  

Host: 
0

     Scratch files written to /scratch/qchem/qchem23937//
 Nov1815 1189b_ 19540  19532 5443   
 Parallel job on  1  processors
Processing $rem in /mnt/software/qchem/config/preferences.
 MEM_TOTAL  2000 

Checking the input file for inconsistencies... 	...done.

--------------------------------------------------------------
User input:
--------------------------------------------------------------
$comment
XAS calculation for the 2b valence excited for water using cvs-adc(2)-x + 6-311+G* basis set
job 1 - determination of HF orbitals
$end

$molecule
0 1
C    -0.696126    -1.136419     0.000000
C     0.696126    -1.136419     0.000000
N    -1.417532     0.000000     0.000000
N     1.417532     0.000000     0.000000
C     0.696126     1.136419     0.000000
C    -0.696126     1.136419     0.000000
H     1.250625     2.067160     0.000000
H    -1.250625     2.067160     0.000000
H     1.250625    -2.067160     0.000000
H    -1.250625    -2.067160     0.000000
$end

$rem
jobtype      sp
sym_ignore true
exchange     hf
basis        6-311+G*
unrestricted true
$end

--------------------------------------------------------------
 ----------------------------------------------------------------
             Standard Nuclear Orientation (Angstroms)
    I     Atom           X                Y                Z
 ----------------------------------------------------------------
    1      C      -0.6961260000    -1.1364190000     0.0000000000
    2      C       0.6961260000    -1.1364190000     0.0000000000
    3      N      -1.4175320000     0.0000000000     0.0000000000
    4      N       1.4175320000     0.0000000000     0.0000000000
    5      C       0.6961260000     1.1364190000     0.0000000000
    6      C      -0.6961260000     1.1364190000     0.0000000000
    7      H       1.2506250000     2.0671600000     0.0000000000
    8      H      -1.2506250000     2.0671600000     0.0000000000
    9      H       1.2506250000    -2.0671600000     0.0000000000
   10      H      -1.2506250000    -2.0671600000     0.0000000000
 ----------------------------------------------------------------
 Nuclear Repulsion Energy =   207.9974042823 hartrees
 There are       21 alpha and       21 beta electrons
 Requested basis set is 6-311+G(d)
 There are 48 shells and 144 basis functions

 Total QAlloc Memory Limit   2000 MB
 Mega-Array Size        61 MB
 MEM_STATIC part        62 MB

                       Distance Matrix (Angstroms)
             C (  1)   C (  2)   N (  3)   N (  4)   C (  5)   C (  6)
   C (  2)  1.392252
   N (  3)  1.346059  2.399791
   N (  4)  2.399791  1.346059  2.835064
   C (  5)  2.665363  2.272838  2.399791  1.346059
   C (  6)  2.272838  2.665363  1.346059  2.399791  1.392252
   H (  7)  3.748701  3.251213  3.375235  2.073887  1.083396  2.157804
   H (  8)  3.251213  3.748701  2.073887  3.375235  2.157804  1.083396
   H (  9)  2.157804  1.083396  3.375235  2.073887  3.251213  3.748701
   H ( 10)  1.083396  2.157804  2.073887  3.375235  3.748701  3.251213
             H (  7)   H (  8)   H (  9)
   H (  8)  2.501250
   H (  9)  4.134320  4.832065
   H ( 10)  4.832065  4.134320  2.501250
 
 tim1(1): 
  0.000000000000000E+000
 tim1(2): 
  0.000000000000000E+000
 A cutoff of  1.0D-08 yielded   1110 shell pairs
 There are     10445 function pairs (     11350 Cartesian)
 
 -------------------------------------------------------
 OpenMP Integral Computing Module                       
 Release: version 1.0, May 2013, Q-Chem Inc. Pittsburgh 
 -------------------------------------------------------
 Integral Job Info:
 Integral job number is                      11
 Integral operator is                         1
 short-range coefficients                     0
 long-range coefficients              100000000
 Omega coefficients                           0
 if combine SR and LR in K                    0
 Integral screening is                        0
 Integral computing path is                   2
 max size of driver memory is            800000
 size of driver memory is                593474
 size of scratch memory is              2260544
 max col of scratch BK array               1296
 max len of scratch array in speh3          155
 max len of scratch index in speh4           18
 max int batch size is                      520
 min int batch size is                       52
 fixed nKL is                                52
 max L of basis functions is                  2
 order of int derivative is                   0
 number of shells is                         48
 number of basis is                         150
 number of cartesian basis is               150
 number of contracted shell pairs          1110
 number of primitive shell pairs           3292
 maxK2 (contraction) of shell pair           36
 max number of K2 of shell pair               1
 max number of CS2 of shell pair            179
 max number of PS2 of shell pair            636
 mem total for path MDJ                   29946
 -------------------------------------------------------
 Smallest overlap matrix eigenvalue = 4.10E-05

 Q-Chem warning in module /home/scratch/svnadmin/1189b_zgan/qchem/stvman/mkSTV.C, line 251:

 Overlap eigenvalue is smaller than square root of threshold


 Scale SEOQF with 1.000000e-01/1.000000e-01/1.000000e-01

 Standard Electronic Orientation quadrupole field applied
 Nucleus-field energy     =     0.0000000051 hartrees
 Guess from superposition of atomic densities
 Warning:  Energy on first SCF cycle will be non-variational
 An unrestricted Hartree-Fock SCF calculation will be
 performed using Pulay DIIS extrapolation
 SCF converges when DIIS error is below 1.0E-05
 using 4 threads for integral computing 
 ---------------------------------------
  Cycle       Energy         DIIS Error
 ---------------------------------------
    1    -264.9303541561      6.12E-02
    2    -262.6621313703      4.45E-03
    3    -262.7247826909      1.74E-03
    4    -262.7320283012      7.73E-04
    5    -262.7337673575      1.39E-04
    6    -262.7338517596      4.74E-05
    7    -262.7338675884      1.82E-05
    8    -262.7338701911      3.16E-06 Convergence criterion met
 ---------------------------------------
 <S^2> = 0.0000
 SCF time:  CPU 12.86 s  wall 4.39 s
 SCF   energy in the final basis set = -262.7338701911
 Total energy in the final basis set = -262.7338701911
 
 --------------------------------------------------------------
 
                    Orbital Energies (a.u.)
 --------------------------------------------------------------
 
 Alpha MOs
 -- Occupied --
-15.601 -15.601 -11.292 -11.292 -11.291 -11.291  -1.309  -1.220
 -1.059  -0.909  -0.890  -0.731  -0.706  -0.682  -0.617  -0.574
 -0.554  -0.504  -0.435  -0.419  -0.363
 -- Virtual --
  0.064   0.064   0.074   0.084   0.099   0.100   0.112   0.119
  0.128   0.141   0.142   0.146   0.147   0.186   0.187   0.204
  0.206   0.252   0.272   0.284   0.302   0.305   0.311   0.311
  0.323   0.335   0.349   0.365   0.369   0.413   0.414   0.417
  0.461   0.517   0.532   0.611   0.662   0.684   0.699   0.724
  0.734   0.735   0.742   0.787   0.795   0.836   0.910   0.930
  0.930   0.968   0.969   0.973   1.009   1.041   1.061   1.078
  1.101   1.143   1.150   1.185   1.187   1.196   1.298   1.299
  1.313   1.391   1.460   1.544   1.584   1.629   1.645   1.711
  1.806   1.860   1.866   1.910   2.008   2.113   2.114   2.143
  2.221   2.293   2.416   2.531   2.578   2.584   2.628   2.637
  2.662   2.699   2.791   2.946   2.990   3.106   3.135   3.137
  3.155   3.173   3.222   3.270   3.324   3.347   3.603   3.632
  3.763   3.809   3.838   3.861   3.865   4.324   4.335   4.344
  4.412   4.697   5.036   5.258   5.794  24.709  24.834  25.144
 25.160  36.887  37.060
 
 Beta MOs
 -- Occupied --
-15.601 -15.601 -11.292 -11.292 -11.291 -11.291  -1.309  -1.220
 -1.059  -0.909  -0.890  -0.731  -0.706  -0.682  -0.617  -0.574
 -0.554  -0.504  -0.435  -0.419  -0.363
 -- Virtual --
  0.064   0.064   0.074   0.084   0.099   0.100   0.112   0.119
  0.128   0.141   0.142   0.146   0.147   0.186   0.187   0.204
  0.206   0.252   0.272   0.284   0.302   0.305   0.311   0.311
  0.323   0.335   0.349   0.365   0.369   0.413   0.414   0.417
  0.461   0.517   0.532   0.611   0.662   0.684   0.699   0.724
  0.734   0.735   0.742   0.787   0.795   0.836   0.910   0.930
  0.930   0.968   0.969   0.973   1.009   1.041   1.061   1.078
  1.101   1.143   1.150   1.185   1.187   1.196   1.298   1.299
  1.313   1.391   1.460   1.544   1.584   1.629   1.645   1.711
  1.806   1.860   1.866   1.910   2.008   2.113   2.114   2.143
  2.221   2.293   2.416   2.531   2.578   2.584   2.628   2.637
  2.662   2.699   2.791   2.946   2.990   3.106   3.135   3.137
  3.155   3.173   3.222   3.270   3.324   3.347   3.603   3.632
  3.763   3.809   3.838   3.861   3.865   4.324   4.335   4.344
  4.412   4.697   5.036   5.258   5.794  24.709  24.834  25.144
 25.160  36.887  37.060
 --------------------------------------------------------------
 
          Ground-State Mulliken Net Atomic Charges

     Atom                 Charge (a.u.)    Spin (a.u.)
  --------------------------------------------------------
      1 C                    -0.228355       0.000000
      2 C                    -0.228355       0.000000
      3 N                    -0.049011       0.000000
      4 N                    -0.049011       0.000000
      5 C                    -0.228355       0.000000
      6 C                    -0.228355       0.000000
      7 H                     0.252860       0.000000
      8 H                     0.252860       0.000000
      9 H                     0.252860       0.000000
     10 H                     0.252860       0.000000
  --------------------------------------------------------
  Sum of atomic charges =     0.000000
  Sum of spin   charges =     0.000000

 -----------------------------------------------------------------
                    Cartesian Multipole Moments
 -----------------------------------------------------------------
    Charge (ESU x 10^10)
                 0.0000
    Dipole Moment (Debye)
         X       0.0000      Y       0.0000      Z       0.0000
       Tot       0.0000
    Quadrupole Moments (Debye-Ang)
        XX     -42.2925     XY       0.0000     YY     -26.3607
        XZ       0.0000     YZ       0.0000     ZZ     -37.2626
    Octopole Moments (Debye-Ang^2)
       XXX       0.0000    XXY       0.0000    XYY       0.0000
       YYY       0.0000    XXZ       0.0000    XYZ       0.0000
       YYZ       0.0000    XZZ       0.0000    YZZ       0.0000
       ZZZ       0.0000
    Hexadecapole Moments (Debye-Ang^3)
      XXXX    -309.3998   XXXY       0.0000   XXYY     -69.8478
      XYYY       0.0000   YYYY    -228.4801   XXXZ       0.0000
      XXYZ       0.0000   XYYZ       0.0000   YYYZ       0.0000
      XXZZ     -53.5235   XYZZ       0.0000   YYZZ     -56.2080
      XZZZ       0.0000   YZZZ       0.0000   ZZZZ     -41.4457
 -----------------------------------------------------------------
Archival summary:
1\1\tp-linux1\SP\HF\BasisUnspecified\244\thomas\WedMar123:39:422017WedMar123:39:422017\0\\#,HF,BasisUnspecified,\\0,1\N\C,1,1.34606\H,2,1.0834,1,116.808\C,1,1.34606,2,115.185,3,-180,0\H,4,1.0834,1,116.808,2,-180,0\C,2,1.39225,1,122.408,3,-180,0\H,6,1.0834,2,120.785,1,-180,0\N,6,1.34606,2,122.408,1,0,0\C,8,1.34606,6,115.185,2,0,0\H,9,1.0834,8,116.808,6,-180,0\\HF=-262.73387\\@

 Total job time:  4.94s(wall), 13.71s(cpu) 
 Wed Mar  1 23:39:42 2017

        *************************************************************
        *                                                           *
        *  Thank you very much for using Q-Chem.  Have a nice day.  *
        *                                                           *
        *************************************************************


0 sent ACK to 0 
now end server 0 ... 
cleanup process ... done

Running Job 2 of 3 cvs-adc-mom-s1.inp
qchem cvs-adc-mom-s1.inp_23937.1 /scratch/qchem/qchem23937/ 1
/mnt/software/qchem/bin/mpi/mpirun_qchem -machinefile /mnt/software/qchem/bin/mpi/machines -np 1 /mnt/software/qchem/exe/qcprog.exe cvs-adc-mom-s1.inp_23937.1 /scratch/qchem/qchem23937/

Process 0 of 1 is on tp-linux1 - thread support 0
initial socket setup ...start
initial socket setup ...done 
now start server 0 ... 

cmd = ssh tp-linux1 /mnt/software/qchem/bin/get_hostid 1366208440 > /scratch/qchem/qchem23937/lic.dat
                  Welcome to Q-Chem
     A Quantum Leap Into The Future Of Chemistry


 Q-Chem 4.3, Q-Chem, Inc., Pleasanton, CA (2015)

 Y. Shao,  Z. Gan,  E. Epifanovsky,  A. T. B. Gilbert,  M. Wormit,  
 J. Kussmann,  A. W. Lange,  A. Behn,  J. Deng,  X. Feng,  D. Ghosh,  
 M. Goldey,  P. R. Horn,  L. D. Jacobson,  I. Kaliman,  R. Z. Khaliullin,  
 T. Kus,  A. Landau,  J. Liu,  E. I. Proynov,  Y. M. Rhee,  R. M. Richard,  
 M. A. Rohrdanz,  R. P. Steele,  E. J. Sundstrom,  H. L. Woodcock III,  
 P. M. Zimmerman,  D. Zuev,  B. Albrecht,  E. Alguire,  B. Austin,  
 S. A. Baeppler,  G. J. O. Beran,  Y. A. Bernard,  E. Berquist,  
 K. Brandhorst,  K. B. Bravaya,  S. T. Brown,  D. Casanova,  C.-M. Chang,  
 Y. Chen,  S. H. Chien,  K. D. Closser,  D. L. Crittenden,  M. Diedenhofen,  
 R. A. DiStasio Jr.,  H. Do,  A. D. Dutoi,  R. G. Edgar,  P.-T. Fang,  
 S. Fatehi,  Q. Feng,  L. Fusti-Molnar,  A. Ghysels,  
 A. Golubeva-Zadorozhnaya,  J. Gomes,  A. Gunina,  M. W. D. Hanson-Heine,  
 P. H. P. Harbach,  A. W. Hauser,  E. G. Hohenstein,  Z. C. Holden,  K. Hui,  
 T.-C. Jagau,  H. Ji,  B. Kaduk,  K. Khistyaev,  Jaehoon Kim,  Jihan Kim,  
 R. A. King,  P. Klunzinger,  D. Kosenkov,  T. Kowalczyk,  C. M. Krauter,  
 K. U. Lao,  A. Laurent,  K. V. Lawler,  S. Lehtola,  S. V. Levchenko,  
 C. Y. Lin,  Y.-S. Lin,  F. Liu,  E. Livshits,  R. C. Lochan,  A. Luenser,  
 P. Manohar,  S. F. Manzer,  S.-P. Mao,  N. Mardirossian,  A. V. Marenich,  
 L. A. Martinez-Martinez,  S. A. Maurer,  N. J. Mayhall,  K. Nanda,  
 C. M. Oana,  R. Olivares-Amaya,  D. P. O'Neill,  J. A. Parkhill,  
 T. M. Perrine,  R. Peverati,  P. A. Pieniazek,  F. Plasser,  A. Prociuk,  
 D. R. Rehn,  E. Rosta,  N. J. Russ,  N. Sergueev,  S. M. Sharada,  
 S. Sharma,  D. W. Small,  A. Sodt,  T. Stauch,  T. Stein,  D. Stuck,  
 Y.-C. Su,  A. J. W. Thom,  T. Tsuchimochi,  L. Vogt,  O. Vydrov,  T. Wang,  
 M. A. Watson,  J. Wenzel,  A. White,  C. F. Williams,  V. Vanovschi,  
 S. Yeganeh,  S. R. Yost,  Z.-Q. You,  I. Y. Zhang,  X. Zhang,  Y. Zhao,  
 B. R. Brooks,  G. K. L. Chan,  D. M. Chipman,  C. J. Cramer,  
 W. A. Goddard III,  M. S. Gordon,  W. J. Hehre,  A. Klamt,  
 H. F. Schaefer III,  M. W. Schmidt,  C. D. Sherrill,  D. G. Truhlar,  
 A. Warshel,  X. Xu,  A. Aspuru-Guzik,  R. Baer,  A. T. Bell,  N. A. Besley,  
 J.-D. Chai,  A. Dreuw,  B. D. Dunietz,  T. R. Furlani,  S. R. Gwaltney,  
 C.-P. Hsu,  Y. Jung,  J. Kong,  D. S. Lambrecht,  W. Liang,  C. Ochsenfeld,  
 V. A. Rassolov,  L. V. Slipchenko,  J. E. Subotnik,  T. Van Voorhis,  
 J. M. Herbert,  A. I. Krylov,  P. M. W. Gill,  M. Head-Gordon

 Contributors to earlier versions of Q-Chem not listed above: 
 R. D. Adamson,  J. Baker,  E. F. C. Byrd,  A. K. Chakraborty,  C.-L. Cheng,  
 H. Dachsel,  R. J. Doerksen,  G. Hawkins,  A. Heyden,  S. Hirata,  
 G. Kedziora,  F. J. Keil,  C. Kelley,  P. P. Korambath,  W. Kurlancheek,  
 A. M. Lee,  M. S. Lee,  D. Liotard,  I. Lotan,  P. E. Maslen,  N. Nair,  
 D. Neuhauser,  R. Olson,  B. Peters,  J. Ritchie,  N. E. Schultz,  
 N. Shenvi,  A. C. Simmonett,  K. S. Thanthiriwatte,  Q. Wu,  W. Zhang

 Please cite Q-Chem as follows:
 Y. Shao et al., Mol. Phys. 113, 184-215 (2015)
 DOI: 10.1080/00268976.2014.952696

 Q-Chem 4.3.0 for Intel X86 Linux

 Parts of Q-Chem use Armadillo 5.200.1 (Boston Tea Smuggler).
 http://arma.sourceforge.net/

 Q-Chem begins on Wed Mar  1 23:39:45 2017  

Host: 
0

     Scratch files written to /scratch/qchem/qchem23937//
 Nov1815 1189b_ 19540  19532 5443   
 Parallel job on  1  processors
Processing $rem in /mnt/software/qchem/config/preferences.
 MEM_TOTAL  2000 

Checking the input file for inconsistencies... 	...done.

--------------------------------------------------------------
User input:
--------------------------------------------------------------

$comment
job2 - MOM calculation for 2b excited state wavefuntion
$end

$molecule
read
$end

$rem
JOBTYPE           SP
EXCHANGE          HF
BASIS             6-311+G*
SCF_GUESS         READ
MOM_START         1
UNRESTRICTED      TRUE
sym_ignore true
$end

$swap_occupied_virtual
beta   21  22	!beta electron in RHF HOMO-1 moved to RHF LUMO
$end

--------------------------------------------------------------
 ----------------------------------------------------------------
             Standard Nuclear Orientation (Angstroms)
    I     Atom           X                Y                Z
 ----------------------------------------------------------------
    1      C      -0.6961260000    -1.1364190000     0.0000000000
    2      C       0.6961260000    -1.1364190000     0.0000000000
    3      N      -1.4175320000     0.0000000000     0.0000000000
    4      N       1.4175320000     0.0000000000     0.0000000000
    5      C       0.6961260000     1.1364190000     0.0000000000
    6      C      -0.6961260000     1.1364190000     0.0000000000
    7      H       1.2506250000     2.0671600000     0.0000000000
    8      H      -1.2506250000     2.0671600000     0.0000000000
    9      H       1.2506250000    -2.0671600000     0.0000000000
   10      H      -1.2506250000    -2.0671600000     0.0000000000
 ----------------------------------------------------------------
 Nuclear Repulsion Energy =   207.9974042823 hartrees
 There are       21 alpha and       21 beta electrons
 Requested basis set is 6-311+G(d)
 There are 48 shells and 144 basis functions

 Total QAlloc Memory Limit   2000 MB
 Mega-Array Size        61 MB
 MEM_STATIC part        62 MB

                       Distance Matrix (Angstroms)
             C (  1)   C (  2)   N (  3)   N (  4)   C (  5)   C (  6)
   C (  2)  1.392252
   N (  3)  1.346059  2.399791
   N (  4)  2.399791  1.346059  2.835064
   C (  5)  2.665363  2.272838  2.399791  1.346059
   C (  6)  2.272838  2.665363  1.346059  2.399791  1.392252
   H (  7)  3.748701  3.251213  3.375235  2.073887  1.083396  2.157804
   H (  8)  3.251213  3.748701  2.073887  3.375235  2.157804  1.083396
   H (  9)  2.157804  1.083396  3.375235  2.073887  3.251213  3.748701
   H ( 10)  1.083396  2.157804  2.073887  3.375235  3.748701  3.251213
             H (  7)   H (  8)   H (  9)
   H (  8)  2.501250
   H (  9)  4.134320  4.832065
   H ( 10)  4.832065  4.134320  2.501250
 
 tim1(1): 
  0.000000000000000E+000
 tim1(2): 
  0.000000000000000E+000
 A cutoff of  1.0D-08 yielded   1110 shell pairs
 There are     10445 function pairs (     11350 Cartesian)
 
 -------------------------------------------------------
 OpenMP Integral Computing Module                       
 Release: version 1.0, May 2013, Q-Chem Inc. Pittsburgh 
 -------------------------------------------------------
 Integral Job Info:
 Integral job number is                      11
 Integral operator is                         1
 short-range coefficients                     0
 long-range coefficients              100000000
 Omega coefficients                           0
 if combine SR and LR in K                    0
 Integral screening is                        0
 Integral computing path is                   2
 max size of driver memory is            800000
 size of driver memory is                593474
 size of scratch memory is              2260544
 max col of scratch BK array               1296
 max len of scratch array in speh3          155
 max len of scratch index in speh4           18
 max int batch size is                      520
 min int batch size is                       52
 fixed nKL is                                52
 max L of basis functions is                  2
 order of int derivative is                   0
 number of shells is                         48
 number of basis is                         150
 number of cartesian basis is               150
 number of contracted shell pairs          1110
 number of primitive shell pairs           3292
 maxK2 (contraction) of shell pair           36
 max number of K2 of shell pair               1
 max number of CS2 of shell pair            179
 max number of PS2 of shell pair            636
 mem total for path MDJ                   29946
 -------------------------------------------------------
 Smallest overlap matrix eigenvalue = 4.10E-05

 Q-Chem warning in module /home/scratch/svnadmin/1189b_zgan/qchem/stvman/mkSTV.C, line 251:

 Overlap eigenvalue is smaller than square root of threshold


 Scale SEOQF with 1.000000e-01/1.000000e-01/1.000000e-01

 Standard Electronic Orientation quadrupole field applied
 Nucleus-field energy     =     0.0000000051 hartrees
 Guess MOs from SCF MO coefficient file
 Reading MOs from coefficient file
 User-specified occupied guess orbitals will be used
   Alpha:
   1   2   3   4   5   6   7   8   9  10  11  12  13  14  15
  16  17  18  19  20  21
 Reading MOs from coefficient file
   Beta:
   1   2   3   4   5   6   7   8   9  10  11  12  13  14  15
  16  17  18  19  20  22
 An unrestricted Hartree-Fock SCF calculation will be
 performed using Pulay DIIS extrapolation
 SCF converges when DIIS error is below 1.0E-05
 using 4 threads for integral computing 
 MOM overlap:    20.9790216425 / 21
 MOM overlap:    20.9581034984 / 21
 ---------------------------------------
  Cycle       Energy         DIIS Error
 ---------------------------------------
    1    -262.4478331630      2.83E-03
 MOM overlap:    20.9992226396 / 21
 MOM overlap:    20.9959107895 / 21
    2    -262.4853657740      1.29E-03
 MOM overlap:    20.9992912493 / 21
 MOM overlap:    20.9973681017 / 21
    3    -262.4927902684      2.34E-04
 MOM overlap:    20.9996556459 / 21
 MOM overlap:    20.9982813497 / 21
    4    -262.4957686292      1.10E-04
 MOM overlap:    20.9993915664 / 21
 MOM overlap:    20.9981344289 / 21
    5    -262.4975091268      6.72E-05
 MOM overlap:    20.9994676098 / 21
 MOM overlap:    20.9986091107 / 21
    6    -262.4988412775      3.48E-05
 MOM overlap:    20.9998318548 / 21
 MOM overlap:    20.9996247438 / 21
    7    -262.4994896936      1.49E-05
 MOM overlap:    20.9999834430 / 21
 MOM overlap:    20.9999611728 / 21
    8    -262.4996241368      4.50E-06 Convergence criterion met
 ---------------------------------------
 <S^2> = 1.1473
 SCF time:  CPU 13.86 s  wall 4.83 s
 SCF   energy in the final basis set = -262.4996241368
 Total energy in the final basis set = -262.4996241368
 
 --------------------------------------------------------------
 
                    Orbital Energies (a.u.)
 --------------------------------------------------------------
 
 Alpha MOs
 -- Occupied --
-15.662 -15.662 -11.403 -11.403 -11.402 -11.402  -1.399  -1.292
 -1.176  -1.010  -0.980  -0.818  -0.798  -0.766  -0.711  -0.673
 -0.633  -0.564  -0.506  -0.488  -0.487
 -- Virtual --
 -0.006   0.016   0.050   0.062   0.075   0.090   0.095   0.096
  0.121   0.123   0.126   0.138   0.139   0.178   0.180   0.181
  0.183   0.236   0.237   0.242   0.263   0.267   0.271   0.276
  0.284   0.308   0.324   0.337   0.342   0.355   0.381   0.385
  0.395   0.447   0.451   0.551   0.592   0.608   0.613   0.643
  0.659   0.678   0.687   0.706   0.716   0.769   0.844   0.856
  0.862   0.898   0.908   0.910   0.935   0.957   0.983   1.036
  1.052   1.069   1.110   1.121   1.136   1.141   1.187   1.188
  1.255   1.331   1.347   1.439   1.496   1.530   1.551   1.654
  1.717   1.763   1.781   1.820   1.919   2.008   2.009   2.054
  2.113   2.198   2.327   2.451   2.486   2.515   2.549   2.570
  2.582   2.623   2.713   2.883   2.907   2.994   3.059   3.069
  3.070   3.078   3.139   3.158   3.212   3.266   3.502   3.531
  3.678   3.726   3.752   3.775   3.780   4.245   4.250   4.271
  4.359   4.630   4.960   5.182   5.712  24.601  24.725  25.035
 25.051  36.823  36.997
 
 Beta MOs
 -- Occupied --
-15.672 -15.672 -11.395 -11.395 -11.394 -11.394  -1.395  -1.311
 -1.125  -0.994  -0.963  -0.815  -0.795  -0.759  -0.702  -0.634
 -0.617  -0.574  -0.540  -0.495  -0.083
 -- Virtual --
 -0.119   0.014   0.032   0.054   0.079   0.079   0.086   0.089
  0.106   0.109   0.119   0.130   0.132   0.168   0.175   0.177
  0.193   0.230   0.235   0.249   0.260   0.267   0.275   0.275
  0.289   0.305   0.309   0.336   0.341   0.350   0.379   0.381
  0.397   0.451   0.473   0.554   0.608   0.629   0.650   0.662
  0.679   0.680   0.688   0.740   0.749   0.773   0.849   0.858
  0.862   0.898   0.912   0.913   0.942   0.965   0.992   1.007
  1.046   1.075   1.081   1.123   1.137   1.138   1.223   1.226
  1.254   1.325   1.387   1.469   1.513   1.548   1.563   1.643
  1.726   1.779   1.786   1.826   1.919   2.032   2.034   2.070
  2.139   2.211   2.330   2.447   2.496   2.503   2.547   2.564
  2.579   2.617   2.714   2.866   2.906   3.023   3.056   3.057
  3.076   3.092   3.140   3.185   3.239   3.267   3.509   3.538
  3.680   3.728   3.755   3.778   3.780   4.243   4.249   4.255
  4.332   4.626   4.959   5.180   5.712  24.606  24.731  25.040
 25.056  36.817  36.990
 --------------------------------------------------------------
 
          Ground-State Mulliken Net Atomic Charges

     Atom                 Charge (a.u.)    Spin (a.u.)
  --------------------------------------------------------
      1 C                    -0.638793      -0.085330
      2 C                    -0.638793      -0.085330
      3 N                     0.471325       0.100016
      4 N                     0.471325       0.100016
      5 C                    -0.638793      -0.085330
      6 C                    -0.638793      -0.085330
      7 H                     0.403130       0.035323
      8 H                     0.403130       0.035323
      9 H                     0.403130       0.035323
     10 H                     0.403130       0.035323
  --------------------------------------------------------
  Sum of atomic charges =     0.000000
  Sum of spin   charges =     0.000000

 -----------------------------------------------------------------
                    Cartesian Multipole Moments
 -----------------------------------------------------------------
    Charge (ESU x 10^10)
                 0.0000
    Dipole Moment (Debye)
         X       0.0000      Y       0.0000      Z       0.0000
       Tot       0.0000
    Quadrupole Moments (Debye-Ang)
        XX     -53.8131     XY       0.0000     YY     -39.5253
        XZ       0.0000     YZ       0.0000     ZZ     -51.8006
    Octopole Moments (Debye-Ang^2)
       XXX       0.0000    XXY       0.0000    XYY       0.0000
       YYY       0.0000    XXZ       0.0000    XYZ       0.0000
       YYZ       0.0000    XZZ       0.0000    YZZ       0.0000
       ZZZ       0.0000
    Hexadecapole Moments (Debye-Ang^3)
      XXXX    -470.9136   XXXY       0.0000   XXYY    -143.1777
      XYYY       0.0000   YYYY    -465.8323   XXXZ       0.0000
      XXYZ       0.0000   XYYZ       0.0000   YYYZ       0.0000
      XXZZ    -106.1850   XYZZ       0.0000   YYZZ    -122.6987
      XZZZ       0.0000   YZZZ       0.0000   ZZZZ    -178.4543
 -----------------------------------------------------------------
Archival summary:
1\1\tp-linux1\SP\HF\BasisUnspecified\244\thomas\WedMar123:39:502017WedMar123:39:502017\0\\#,HF,BasisUnspecified,\\0,1\N\C,1,1.34606\H,2,1.0834,1,116.808\C,1,1.34606,2,115.185,3,-180,0\H,4,1.0834,1,116.808,2,-180,0\C,2,1.39225,1,122.408,3,-180,0\H,6,1.0834,2,120.785,1,-180,0\N,6,1.34606,2,122.408,1,0,0\C,8,1.34606,6,115.185,2,0,0\H,9,1.0834,8,116.808,6,-180,0\\HF=-262.499624\\@

 Total job time:  5.26s(wall), 14.66s(cpu) 
 Wed Mar  1 23:39:50 2017

        *************************************************************
        *                                                           *
        *  Thank you very much for using Q-Chem.  Have a nice day.  *
        *                                                           *
        *************************************************************


0 sent ACK to 0 
now end server 0 ... 
cleanup process ... done

Running Job 3 of 3 cvs-adc-mom-s1.inp
qchem cvs-adc-mom-s1.inp_23937.2 /scratch/qchem/qchem23937/ 1
/mnt/software/qchem/bin/mpi/mpirun_qchem -machinefile /mnt/software/qchem/bin/mpi/machines -np 1 /mnt/software/qchem/exe/qcprog.exe cvs-adc-mom-s1.inp_23937.2 /scratch/qchem/qchem23937/

Process 0 of 1 is on tp-linux1 - thread support 0
initial socket setup ...start
initial socket setup ...done 
now start server 0 ... 

cmd = ssh tp-linux1 /mnt/software/qchem/bin/get_hostid 1858449316 > /scratch/qchem/qchem23937/lic.dat
                  Welcome to Q-Chem
     A Quantum Leap Into The Future Of Chemistry


 Q-Chem 4.3, Q-Chem, Inc., Pleasanton, CA (2015)

 Y. Shao,  Z. Gan,  E. Epifanovsky,  A. T. B. Gilbert,  M. Wormit,  
 J. Kussmann,  A. W. Lange,  A. Behn,  J. Deng,  X. Feng,  D. Ghosh,  
 M. Goldey,  P. R. Horn,  L. D. Jacobson,  I. Kaliman,  R. Z. Khaliullin,  
 T. Kus,  A. Landau,  J. Liu,  E. I. Proynov,  Y. M. Rhee,  R. M. Richard,  
 M. A. Rohrdanz,  R. P. Steele,  E. J. Sundstrom,  H. L. Woodcock III,  
 P. M. Zimmerman,  D. Zuev,  B. Albrecht,  E. Alguire,  B. Austin,  
 S. A. Baeppler,  G. J. O. Beran,  Y. A. Bernard,  E. Berquist,  
 K. Brandhorst,  K. B. Bravaya,  S. T. Brown,  D. Casanova,  C.-M. Chang,  
 Y. Chen,  S. H. Chien,  K. D. Closser,  D. L. Crittenden,  M. Diedenhofen,  
 R. A. DiStasio Jr.,  H. Do,  A. D. Dutoi,  R. G. Edgar,  P.-T. Fang,  
 S. Fatehi,  Q. Feng,  L. Fusti-Molnar,  A. Ghysels,  
 A. Golubeva-Zadorozhnaya,  J. Gomes,  A. Gunina,  M. W. D. Hanson-Heine,  
 P. H. P. Harbach,  A. W. Hauser,  E. G. Hohenstein,  Z. C. Holden,  K. Hui,  
 T.-C. Jagau,  H. Ji,  B. Kaduk,  K. Khistyaev,  Jaehoon Kim,  Jihan Kim,  
 R. A. King,  P. Klunzinger,  D. Kosenkov,  T. Kowalczyk,  C. M. Krauter,  
 K. U. Lao,  A. Laurent,  K. V. Lawler,  S. Lehtola,  S. V. Levchenko,  
 C. Y. Lin,  Y.-S. Lin,  F. Liu,  E. Livshits,  R. C. Lochan,  A. Luenser,  
 P. Manohar,  S. F. Manzer,  S.-P. Mao,  N. Mardirossian,  A. V. Marenich,  
 L. A. Martinez-Martinez,  S. A. Maurer,  N. J. Mayhall,  K. Nanda,  
 C. M. Oana,  R. Olivares-Amaya,  D. P. O'Neill,  J. A. Parkhill,  
 T. M. Perrine,  R. Peverati,  P. A. Pieniazek,  F. Plasser,  A. Prociuk,  
 D. R. Rehn,  E. Rosta,  N. J. Russ,  N. Sergueev,  S. M. Sharada,  
 S. Sharma,  D. W. Small,  A. Sodt,  T. Stauch,  T. Stein,  D. Stuck,  
 Y.-C. Su,  A. J. W. Thom,  T. Tsuchimochi,  L. Vogt,  O. Vydrov,  T. Wang,  
 M. A. Watson,  J. Wenzel,  A. White,  C. F. Williams,  V. Vanovschi,  
 S. Yeganeh,  S. R. Yost,  Z.-Q. You,  I. Y. Zhang,  X. Zhang,  Y. Zhao,  
 B. R. Brooks,  G. K. L. Chan,  D. M. Chipman,  C. J. Cramer,  
 W. A. Goddard III,  M. S. Gordon,  W. J. Hehre,  A. Klamt,  
 H. F. Schaefer III,  M. W. Schmidt,  C. D. Sherrill,  D. G. Truhlar,  
 A. Warshel,  X. Xu,  A. Aspuru-Guzik,  R. Baer,  A. T. Bell,  N. A. Besley,  
 J.-D. Chai,  A. Dreuw,  B. D. Dunietz,  T. R. Furlani,  S. R. Gwaltney,  
 C.-P. Hsu,  Y. Jung,  J. Kong,  D. S. Lambrecht,  W. Liang,  C. Ochsenfeld,  
 V. A. Rassolov,  L. V. Slipchenko,  J. E. Subotnik,  T. Van Voorhis,  
 J. M. Herbert,  A. I. Krylov,  P. M. W. Gill,  M. Head-Gordon

 Contributors to earlier versions of Q-Chem not listed above: 
 R. D. Adamson,  J. Baker,  E. F. C. Byrd,  A. K. Chakraborty,  C.-L. Cheng,  
 H. Dachsel,  R. J. Doerksen,  G. Hawkins,  A. Heyden,  S. Hirata,  
 G. Kedziora,  F. J. Keil,  C. Kelley,  P. P. Korambath,  W. Kurlancheek,  
 A. M. Lee,  M. S. Lee,  D. Liotard,  I. Lotan,  P. E. Maslen,  N. Nair,  
 D. Neuhauser,  R. Olson,  B. Peters,  J. Ritchie,  N. E. Schultz,  
 N. Shenvi,  A. C. Simmonett,  K. S. Thanthiriwatte,  Q. Wu,  W. Zhang

 Please cite Q-Chem as follows:
 Y. Shao et al., Mol. Phys. 113, 184-215 (2015)
 DOI: 10.1080/00268976.2014.952696

 Q-Chem 4.3.0 for Intel X86 Linux

 Parts of Q-Chem use Armadillo 5.200.1 (Boston Tea Smuggler).
 http://arma.sourceforge.net/

 Q-Chem begins on Wed Mar  1 23:39:54 2017  

Host: 
0

     Scratch files written to /scratch/qchem/qchem23937//
 Nov1815 1189b_ 19540  19532 5443   
 Parallel job on  1  processors
Processing $rem in /mnt/software/qchem/config/preferences.
 MEM_TOTAL  2000 

Checking the input file for inconsistencies... 	...done.

--------------------------------------------------------------
User input:
--------------------------------------------------------------

$comment
job3 - cvs-adc(2)-x calculation with mom to prevent collapse to ground state
$end

$molecule
read
$end

$rem
mem_total 3000
mem_static 1500
sym_ignore true
mom_start 1
scf_guess read
method cvs-adc(2)-x
basis 6-311+G*
ee_singlets 30
cc_rest_occ 1                  !only excitations from the 1st orbital (N 1s)
unrestricted  true
max_scf_cycles 200
$end
--------------------------------------------------------------
 ----------------------------------------------------------------
             Standard Nuclear Orientation (Angstroms)
    I     Atom           X                Y                Z
 ----------------------------------------------------------------
    1      C      -0.6961260000    -1.1364190000     0.0000000000
    2      C       0.6961260000    -1.1364190000     0.0000000000
    3      N      -1.4175320000     0.0000000000     0.0000000000
    4      N       1.4175320000     0.0000000000     0.0000000000
    5      C       0.6961260000     1.1364190000     0.0000000000
    6      C      -0.6961260000     1.1364190000     0.0000000000
    7      H       1.2506250000     2.0671600000     0.0000000000
    8      H      -1.2506250000     2.0671600000     0.0000000000
    9      H       1.2506250000    -2.0671600000     0.0000000000
   10      H      -1.2506250000    -2.0671600000     0.0000000000
 ----------------------------------------------------------------
 Nuclear Repulsion Energy =   207.9974042823 hartrees
 There are       21 alpha and       21 beta electrons
 Requested basis set is 6-311+G(d)
 There are 48 shells and 144 basis functions

 Total QAlloc Memory Limit   3000 MB
 Mega-Array Size      1467 MB
 MEM_STATIC part      1500 MB

                       Distance Matrix (Angstroms)
             C (  1)   C (  2)   N (  3)   N (  4)   C (  5)   C (  6)
   C (  2)  1.392252
   N (  3)  1.346059  2.399791
   N (  4)  2.399791  1.346059  2.835064
   C (  5)  2.665363  2.272838  2.399791  1.346059
   C (  6)  2.272838  2.665363  1.346059  2.399791  1.392252
   H (  7)  3.748701  3.251213  3.375235  2.073887  1.083396  2.157804
   H (  8)  3.251213  3.748701  2.073887  3.375235  2.157804  1.083396
   H (  9)  2.157804  1.083396  3.375235  2.073887  3.251213  3.748701
   H ( 10)  1.083396  2.157804  2.073887  3.375235  3.748701  3.251213
             H (  7)   H (  8)   H (  9)
   H (  8)  2.501250
   H (  9)  4.134320  4.832065
   H ( 10)  4.832065  4.134320  2.501250
 
 tim1(1): 
  3.999999999999997E-003
 tim1(2): 
  0.000000000000000E+000
 A cutoff of  1.0D-11 yielded   1146 shell pairs
 There are     10569 function pairs (     11484 Cartesian)
 
 -------------------------------------------------------
 OpenMP Integral Computing Module                       
 Release: version 1.0, May 2013, Q-Chem Inc. Pittsburgh 
 -------------------------------------------------------
 Integral Job Info:
 Integral job number is                      11
 Integral operator is                         1
 short-range coefficients                     0
 long-range coefficients              100000000
 Omega coefficients                           0
 if combine SR and LR in K                    0
 Integral screening is                        0
 Integral computing path is                   2
 max size of driver memory is            800000
 size of driver memory is                593474
 size of scratch memory is              2260544
 max col of scratch BK array               1296
 max len of scratch array in speh3          155
 max len of scratch index in speh4           18
 max int batch size is                      520
 min int batch size is                       52
 fixed nKL is                                52
 max L of basis functions is                  2
 order of int derivative is                   0
 number of shells is                         48
 number of basis is                         150
 number of cartesian basis is               150
 number of contracted shell pairs          1146
 number of primitive shell pairs           3470
 maxK2 (contraction) of shell pair           36
 max number of K2 of shell pair               1
 max number of CS2 of shell pair            173
 max number of PS2 of shell pair            648
 mem total for path MDJ                   29946
 -------------------------------------------------------
 Smallest overlap matrix eigenvalue = 4.10E-05

 Scale SEOQF with 1.000000e-01/1.000000e-01/1.000000e-01

 Standard Electronic Orientation quadrupole field applied
 Nucleus-field energy     =     0.0000000051 hartrees
 Guess MOs from SCF MO coefficient file
 Reading MOs from coefficient file
 Reading MOs from coefficient file
 An unrestricted Hartree-Fock SCF calculation will be
 performed using Pulay DIIS extrapolation
 SCF converges when DIIS error is below 1.0E-08
 using 4 threads for integral computing 
 MOM overlap:    20.9999999429 / 21
 MOM overlap:    20.9999995165 / 21
 ---------------------------------------
  Cycle       Energy         DIIS Error
 ---------------------------------------
    1    -262.4996363481      1.51E-06
 MOM overlap:    20.9999998209 / 21
 MOM overlap:    20.9999986018 / 21
    2    -262.4996366569      1.01E-06
 MOM overlap:    20.9999999839 / 21
 MOM overlap:    20.9999999143 / 21
    3    -262.4996369487      4.09E-07
 MOM overlap:    20.9999999910 / 21
 MOM overlap:    20.9999999509 / 21
    4    -262.4996369792      2.31E-07
 MOM overlap:    20.9999999985 / 21
 MOM overlap:    20.9999999906 / 21
    5    -262.4996369914      9.79E-08
 MOM overlap:    20.9999999995 / 21
 MOM overlap:    20.9999999961 / 21
    6    -262.4996369934      4.92E-08
 MOM overlap:    21.0000000000 / 21
 MOM overlap:    20.9999999997 / 21
    7    -262.4996369937      1.17E-08
 MOM overlap:    21.0000000000 / 21
 MOM overlap:    20.9999999999 / 21
    8    -262.4996369936      1.99E-08
 MOM overlap:    21.0000000000 / 21
 MOM overlap:    21.0000000000 / 21
    9    -262.4996369936      4.39E-09 Convergence criterion met
 ---------------------------------------
 <S^2> = 1.1486
 SCF time:  CPU 14.80 s  wall 4.98 s
 SCF   energy in the final basis set = -262.4996369936
 Total energy in the final basis set = -262.4996369936
================================================================================
|                                                                              |
|                                 A D C  M A N                                 |
|                                                                              |
 ------------------------------------------------------------------------------ 
|                                                                              |
| Components:                                                                  |
|                                                                              |
| - libvmm - 1.2-release                                                       |
|   Authors:                                                                   |
|   Evgeny Epifanovsky, Ilya Kaliman                                           |
|                                                                              |
| - libtensor - 2.4-trunk                                                      |
|   Authors:                                                                   |
|   Evgeny Epifanovsky, Michael Wormit, Dmitry Zuev, Sam Manzer                |
|                                                                              |
| - libwfa - 1.1-beta                                                          |
|   Authors:                                                                   |
|   Felix Plasser, Stefanie Baeppler, Benjamin Thomitzni, Michael Wormit       |
|                                                                              |
| - libadc - 1.0-beta                                                          |
|   Authors:                                                                   |
|   Michael Wormit, Philipp H. P. Harbach, Caroline Krauter, Dirk Rehn,        |
|   Matthias Schneider, Jan Wenzel                                             |
|                                                                              |
| - adcman - 2.4-beta                                                          |
|   Authors:                                                                   |
|   Michael Wormit, Philipp H. P. Harbach, Caroline Krauter, Dirk Rehn,        |
|   Jan Wenzel, Andreas Dreuw                                                  |
|                                                                              |
| Authors of earlier versions of ADCMAN:                                       |
| Andreas Dreuw, Jan Hendrik Starcke, Dirk Rehn, Michael Wormit                |
|                                                                              |
================================================================================

 
 Alpha MOs, Unrestricted
 -- Occupied --                  
-15.662 -15.662 -11.403 -11.403 -11.402 -11.402  -1.399  -1.292
  1 A     2 A     3 A     4 A     5 A     6 A     7 A     8 A                  
 -1.177  -1.010  -0.980  -0.818  -0.798  -0.766  -0.711  -0.673
  9 A    10 A    11 A    12 A    13 A    14 A    15 A    16 A                  
 -0.633  -0.564  -0.507  -0.488  -0.487
 17 A    18 A    19 A    20 A    21 A                                          
 -- Virtual --                   
 -0.006   0.016   0.050   0.062   0.075   0.090   0.095   0.096
 22 A    23 A    24 A    25 A    26 A    27 A    28 A    29 A                  
  0.121   0.123   0.126   0.138   0.139   0.178   0.180   0.181
 30 A    31 A    32 A    33 A    34 A    35 A    36 A    37 A                  
  0.183   0.236   0.237   0.242   0.263   0.267   0.271   0.276
 38 A    39 A    40 A    41 A    42 A    43 A    44 A    45 A                  
  0.284   0.308   0.324   0.337   0.342   0.355   0.381   0.386
 46 A    47 A    48 A    49 A    50 A    51 A    52 A    53 A                  
  0.395   0.447   0.451   0.551   0.592   0.608   0.613   0.643
 54 A    55 A    56 A    57 A    58 A    59 A    60 A    61 A                  
  0.659   0.678   0.687   0.706   0.716   0.769   0.844   0.856
 62 A    63 A    64 A    65 A    66 A    67 A    68 A    69 A                  
  0.862   0.898   0.908   0.910   0.935   0.957   0.983   1.036
 70 A    71 A    72 A    73 A    74 A    75 A    76 A    77 A                  
  1.052   1.069   1.110   1.121   1.136   1.141   1.187   1.188
 78 A    79 A    80 A    81 A    82 A    83 A    84 A    85 A                  
  1.255   1.331   1.347   1.439   1.496   1.530   1.551   1.654
 86 A    87 A    88 A    89 A    90 A    91 A    92 A    93 A                  
  1.717   1.763   1.781   1.820   1.919   2.008   2.009   2.054
 94 A    95 A    96 A    97 A    98 A    99 A   100 A   101 A                  
  2.113   2.198   2.327   2.451   2.486   2.515   2.549   2.570
102 A   103 A   104 A   105 A   106 A   107 A   108 A   109 A                  
  2.582   2.623   2.713   2.883   2.907   2.994   3.060   3.069
110 A   111 A   112 A   113 A   114 A   115 A   116 A   117 A                  
  3.070   3.078   3.139   3.158   3.212   3.266   3.502   3.531
118 A   119 A   120 A   121 A   122 A   123 A   124 A   125 A                  
  3.679   3.726   3.752   3.775   3.780   4.245   4.250   4.271
126 A   127 A   128 A   129 A   130 A   131 A   132 A   133 A                  
  4.359   4.630   4.960   5.182   5.712  24.601  24.725  25.035
134 A   135 A   136 A   137 A   138 A   139 A   140 A   141 A                  
 25.051  36.824  36.997
142 A   143 A   144 A                                                          
 
 Beta MOs, Unrestricted
 -- Occupied --                  
-15.672 -15.672 -11.395 -11.395 -11.394 -11.394  -1.395  -1.311
  1 A     2 A     3 A     4 A     5 A     6 A     7 A     8 A                  
 -1.125  -0.994  -0.963  -0.815  -0.795  -0.759  -0.702  -0.634
  9 A    10 A    11 A    12 A    13 A    14 A    15 A    16 A                  
 -0.617  -0.574  -0.540  -0.495  -0.083
 17 A    18 A    19 A    20 A    21 A                                          
 -- Virtual --                   
 -0.119   0.014   0.032   0.054   0.079   0.079   0.086   0.089
 22 A    23 A    24 A    25 A    26 A    27 A    28 A    29 A                  
  0.106   0.109   0.119   0.130   0.132   0.168   0.175   0.177
 30 A    31 A    32 A    33 A    34 A    35 A    36 A    37 A                  
  0.193   0.230   0.235   0.249   0.260   0.268   0.275   0.275
 38 A    39 A    40 A    41 A    42 A    43 A    44 A    45 A                  
  0.289   0.305   0.309   0.336   0.341   0.350   0.379   0.381
 46 A    47 A    48 A    49 A    50 A    51 A    52 A    53 A                  
  0.397   0.451   0.473   0.554   0.608   0.629   0.650   0.662
 54 A    55 A    56 A    57 A    58 A    59 A    60 A    61 A                  
  0.679   0.680   0.688   0.740   0.749   0.773   0.849   0.858
 62 A    63 A    64 A    65 A    66 A    67 A    68 A    69 A                  
  0.862   0.898   0.912   0.913   0.942   0.965   0.992   1.007
 70 A    71 A    72 A    73 A    74 A    75 A    76 A    77 A                  
  1.046   1.075   1.081   1.123   1.137   1.138   1.223   1.226
 78 A    79 A    80 A    81 A    82 A    83 A    84 A    85 A                  
  1.254   1.325   1.387   1.469   1.513   1.548   1.563   1.643
 86 A    87 A    88 A    89 A    90 A    91 A    92 A    93 A                  
  1.726   1.779   1.786   1.826   1.919   2.032   2.034   2.071
 94 A    95 A    96 A    97 A    98 A    99 A   100 A   101 A                  
  2.139   2.211   2.330   2.447   2.496   2.503   2.547   2.564
102 A   103 A   104 A   105 A   106 A   107 A   108 A   109 A                  
  2.579   2.617   2.714   2.866   2.906   3.023   3.056   3.057
110 A   111 A   112 A   113 A   114 A   115 A   116 A   117 A                  
  3.076   3.092   3.140   3.185   3.239   3.267   3.509   3.538
118 A   119 A   120 A   121 A   122 A   123 A   124 A   125 A                  
  3.680   3.728   3.755   3.778   3.780   4.243   4.249   4.255
126 A   127 A   128 A   129 A   130 A   131 A   132 A   133 A                  
  4.332   4.626   4.959   5.180   5.712  24.606  24.731  25.040
134 A   135 A   136 A   137 A   138 A   139 A   140 A   141 A                  
 25.056  36.817  36.990
142 A   143 A   144 A                                                          
 

--------------------------------------------------------------------------------
                                   HF Summary                                   
--------------------------------------------------------------------------------
  Energy:                                                 -262.4996369936 a.u.
  Dip. moment [a.u.]:                  [  -0.000000,   -0.000000,    0.000000]
  Total dipole [Debye]:                                               0.000000
  <r^2> [a.u.]:                        [ 204.375519,  201.044601,   38.524562]
  Total <r^2> [a.u.]:                                               443.944682
--------------------------------------------------------------------------------

--------------------------------------------------------------------------------
                                 MP(2) Summary                                  
--------------------------------------------------------------------------------
  Energy contribution:                                      -0.9021478773 a.u.
  Total energy:                                           -263.4017848709 a.u.
  Dip. moment [a.u.]:                  [  -0.000000,   -0.000000,    0.000000]
  Total dipole [Debye]:                                               0.000000
  <r^2> [a.u.]:                        [ 202.937394,  200.668170,   37.756348]
  Total <r^2> [a.u.]:                                               441.361912
--------------------------------------------------------------------------------
  Starting Davidson ... 
--------------------------------------------------------------------------------
   It NVec Conv  Avg. Norm  Max. Norm  Conv. states           Remark
--------------------------------------------------------------------------------
        30    0  2.343e-01  1.356e+00 15.3114 n n n n n n n n Guess.
    1   60    0  1.250e-01  1.104e+00 14.9056 n n n n n n n n 
    2   90    0  5.836e-02  5.291e-01 14.8574 n n n n n n n n 
    3  120    0  3.961e-02  5.575e-01 14.8554 n n n n n n n n 
    4  150    0  1.929e-02  2.300e-01 14.8552 n n n n n n n n 
    5   60    0  1.561e-02  2.599e-01 14.8552 n n n n n n n n Subspace collapsed.
    6   90    0  1.265e-02  1.867e-01 14.8551 n n n n n n n n 
    7  120    0  6.310e-03  9.023e-02 14.8551 n n n n n n n n 
    8  150    0  5.084e-03  8.318e-02 14.8551 n n n n n n n n 
    9   60    0  2.804e-03  5.024e-02 14.8551 n n n n n n n n Subspace collapsed.
   10   90    0  4.880e-03  1.211e-01 14.8551 n n n n n n n n 
   11  120    0  2.089e-03  4.240e-02 14.8551 n n n n n n n n 
   12  150    1  3.438e-03  7.843e-02 14.8551 y n n n n n n n 
   13   60    1  2.250e-03  5.016e-02 14.8551 y n n n n n n n Subspace collapsed.
   14   90    1  3.477e-03  9.699e-02 14.8551 y n n n n n n n 
   15  120    2  2.467e-03  7.075e-02 14.8551 y y n n n n n n 
   16  150    2  1.962e-03  5.737e-02 14.8551 y y n n n n n n 
   17   60    3  1.157e-03  3.371e-02 14.8551 y y y n n n n n Subspace collapsed.
   18   90    3  1.250e-03  3.647e-02 14.8551 y y y n n n n n 
   19  120    4  7.239e-04  2.075e-02 14.8551 y y y y n n n n 
   20  150    6  4.467e-04  1.100e-02 14.8551 y y y y y n y n 
   21   60    7  5.581e-04  1.638e-02 14.8551 y y y y y n y y Subspace collapsed.
   22   90    8  4.699e-04  1.358e-02 14.8551 y y y y y y y y 
   23  120    8  3.940e-04  1.132e-02 14.8551 y y y y y y y y 
   24  150    8  4.296e-04  1.257e-02 14.8551 y y y y y y y y 
   25   60    8  2.475e-04  7.019e-03 14.8551 y y y y y y y y Subspace collapsed.
   26   90    8  2.761e-04  7.987e-03 14.8551 y y y y y y y y 
   27  119    9  2.728e-04  8.048e-03 14.8551 y y y y y y y y 
   28  148    9  1.636e-04  4.402e-03 14.8551 y y y y y y y y 
   29  150    9  1.628e-04  4.402e-03 14.8551 y y y y y y y y 
   30   59   15  2.158e-04  6.410e-03 14.8551 y y y y y y y y Subspace collapsed.
   31   87   16  1.787e-04  5.161e-03 14.8551 y y y y y y y y 
   32  114   16  1.339e-04  3.880e-03 14.8551 y y y y y y y y 
   33  141   17  1.838e-04  5.454e-03 14.8551 y y y y y y y y 
   34  150   17  1.838e-04  5.454e-03 14.8551 y y y y y y y y 
   35   57   19  9.399e-05  2.743e-03 14.8551 y y y y y y y y Subspace collapsed.
   36   84   20  1.168e-04  3.433e-03 14.8551 y y y y y y y y 
   37  111   23  1.130e-04  3.343e-03 14.8551 y y y y y y y y 
   38  137   24  6.800e-05  1.949e-03 14.8551 y y y y y y y y 
   39  150   24  6.845e-05  1.949e-03 14.8551 y y y y y y y y 
   40   55   26  9.604e-05  2.867e-03 14.8551 y y y y y y y y Subspace collapsed.
   41   57   26  9.604e-05  2.867e-03 14.8551 y y y y y y y y 
   42   81   27  7.833e-05  2.330e-03 14.8551 y y y y y y y y 
   43  104   27  5.791e-05  1.722e-03 14.8551 y y y y y y y y 
   44  127   27  8.224e-05  2.464e-03 14.8551 y y y y y y y y 
   45  127   27  8.224e-05  2.464e-03 14.8551 y y y y y y y y 
   46  150   27  8.326e-05  2.490e-03 14.8551 y y y y y y y y 
   47   53   27  4.180e-05  1.250e-03 14.8551 y y y y y y y y Subspace collapsed.
   48   75   27  5.147e-05  1.538e-03 14.8551 y y y y y y y y 
   49   97   27  4.997e-05  1.494e-03 14.8551 y y y y y y y y 
   50  119   27  2.959e-05  8.816e-04 14.8551 y y y y y y y y 
   51  141   28  3.168e-05  9.456e-04 14.8551 y y y y y y y y 
   52  150   28  3.145e-05  9.402e-04 14.8551 y y y y y y y y 
   53   52   28  1.646e-05  4.920e-04 14.8551 y y y y y y y y Subspace collapsed.
   54   74   28  1.139e-05  3.404e-04 14.8551 y y y y y y y y 
   55   96   28  5.576e-06  1.659e-04 14.8551 y y y y y y y y 
   56  118   28  7.544e-06  2.257e-04 14.8551 y y y y y y y y 
   57  118   28  7.544e-06  2.257e-04 14.8551 y y y y y y y y 
   58  147   28  6.212e-06  1.858e-04 14.8551 y y y y y y y y 
   59  150   28  6.192e-06  1.852e-04 14.8551 y y y y y y y y 
--------------------------------------------------------------------------------
  Davidson Summary: 
 ------------------------------------------------------------
  State  0: excitation energy =  14.8551 a.u.   (converged)
  State  1: excitation energy =  14.9610 a.u.   (converged)
  State  2: excitation energy =  14.9929 a.u.   (converged)
  State  3: excitation energy =  15.0018 a.u.   (converged)
  State  4: excitation energy =  15.0081 a.u.   (converged)
  State  5: excitation energy =  15.0616 a.u.   (converged)
  State  6: excitation energy =  15.0692 a.u.   (converged)
  State  7: excitation energy =  15.0712 a.u.   (converged)
  State  8: excitation energy =  15.1533 a.u.   (converged)
  State  9: excitation energy =  15.1564 a.u.   (converged)
  State 10: excitation energy =  15.1733 a.u.   (converged)
  State 11: excitation energy =  15.1782 a.u.   (converged)
  State 12: excitation energy =  15.1806 a.u.   (converged)
  State 13: excitation energy =  15.1882 a.u.   (converged)
  State 14: excitation energy =  15.1891 a.u.   (converged)
  State 15: excitation energy =  15.1926 a.u.   (converged)
  State 16: excitation energy =  15.1956 a.u.   (converged)
  State 17: excitation energy =  15.1997 a.u.   (converged)
  State 18: excitation energy =  15.2038 a.u.   (converged)
  State 19: excitation energy =  15.2059 a.u.   (converged)
  State 20: excitation energy =  15.2067 a.u.   (converged)
  State 21: excitation energy =  15.2095 a.u.   (converged)
  State 22: excitation energy =  15.2233 a.u.   (converged)
  State 23: excitation energy =  15.2255 a.u.   (converged)
  State 24: excitation energy =  15.2276 a.u.   (not converged)
  State 25: excitation energy =  15.2304 a.u.   (converged)
  State 26: excitation energy =  15.2325 a.u.   (converged)
  State 27: excitation energy =  15.2352 a.u.   (converged)
  State 28: excitation energy =  15.2437 a.u.   (not converged)
  State 29: excitation energy =  15.2460 a.u.   (converged)
 ------------------------------------------------------------


--------------------------------------------------------------------------------
                             Excited State Summary
--------------------------------------------------------------------------------

  Excited state  1 (A)                                             [converged]
  ----------------------------------------------------------------------------
  Term symbol:  2 (-) A                                     R^2 =  1.55210e-12

  Total energy:                                           -248.5466351831 a.u.
  Excitation energy:                                             404.229181 eV

  Osc. strength:                                                      0.000000
  Trans. dip. moment [a.u.]:           [  -0.000000,    0.000000,    0.000000]
  <i|r^2|0> [a.u.]:                    [   0.000000,    0.000000,    0.000000]

  V1^2 = 0.8055, V2^2 = 0.1945

  Important amplitudes:
     core i     occ j       vir a       vir b          v   
    --------------------------------------------------------
     1 (A) B               22 (A) B                  0.8871
     1 (A) B               32 (A) B                  0.1178
    --------------------------------------------------------
  ----------------------------------------------------------------------------


  Excited state  2 (A)                                             [converged]
  ----------------------------------------------------------------------------
  Term symbol:  3 (-) A                                     R^2 =  8.84904e-13

  Total energy:                                           -248.4407740582 a.u.
  Excitation energy:                                             407.109809 eV

  Osc. strength:                                                      0.000000
  Trans. dip. moment [a.u.]:           [   0.000000,   -0.000000,   -0.000000]
  <i|r^2|0> [a.u.]:                    [   0.000000,    0.000000,   -0.000000]

  V1^2 = 0.8641, V2^2 = 0.1359

  Important amplitudes:
     core i     occ j       vir a       vir b          v   
    --------------------------------------------------------
     1 (A) A               23 (A) A                 -0.8237
     1 (A) B               23 (A) B                 -0.3216
    --------------------------------------------------------
  ----------------------------------------------------------------------------


  Excited state  3 (A)                                             [converged]
  ----------------------------------------------------------------------------
  Term symbol:  4 (-) A                                     R^2 =  6.22447e-13

  Total energy:                                           -248.4089133804 a.u.
  Excitation energy:                                             407.976782 eV

  Osc. strength:                                                      0.000000
  Trans. dip. moment [a.u.]:           [  -0.000000,    0.000000,   -0.000000]
  <i|r^2|0> [a.u.]:                    [  -0.000000,    0.000000,    0.000000]

  V1^2 = 0.8320, V2^2 = 0.1680

  Important amplitudes:
     core i     occ j       vir a       vir b          v   
    --------------------------------------------------------
     1 (A) B               23 (A) B                  0.7017
     1 (A) B               28 (A) B                 -0.4154
    --------------------------------------------------------
  ----------------------------------------------------------------------------


  Excited state  4 (A)                                             [converged]
  ----------------------------------------------------------------------------
  Term symbol:  5 (-) A                                     R^2 =  3.93479e-12

  Total energy:                                           -248.3999916123 a.u.
  Excitation energy:                                             408.219556 eV

  Osc. strength:                                                      0.000000
  Trans. dip. moment [a.u.]:           [  -0.000000,   -0.000000,    0.000000]
  <i|r^2|0> [a.u.]:                    [  -0.000000,    0.000000,    0.000000]

  V1^2 = 0.8225, V2^2 = 0.1775

  Important amplitudes:
     core i     occ j       vir a       vir b          v   
    --------------------------------------------------------
     1 (A) A               22 (A) A                  0.8970
     1 (A) A               36 (A) A                  0.1151
    --------------------------------------------------------
  ----------------------------------------------------------------------------


  Excited state  5 (A)                                             [converged]
  ----------------------------------------------------------------------------
  Term symbol:  6 (-) A                                     R^2 =  3.52490e-13

  Total energy:                                           -248.3937288998 a.u.
  Excitation energy:                                             408.389973 eV

  Osc. strength:                                                      0.000000
  Trans. dip. moment [a.u.]:           [  -0.000000,   -0.000000,   -0.000000]
  <i|r^2|0> [a.u.]:                    [   0.000000,    0.000000,   -0.000000]

  V1^2 = 0.0001, V2^2 = 0.9999

  Important amplitudes:
     core i     occ j       vir a       vir b          v   
    --------------------------------------------------------
     1 (A) A   21 (A) B    23 (A) A    22 (A) B      0.6547
     1 (A) B   21 (A) B    22 (A) B    23 (A) B     -0.1452
    --------------------------------------------------------
  ----------------------------------------------------------------------------


  Excited state  6 (A)                                             [converged]
  ----------------------------------------------------------------------------
  Term symbol:  7 (-) A                                     R^2 =  8.11537e-13

  Total energy:                                           -248.3401828798 a.u.
  Excitation energy:                                             409.847034 eV

  Osc. strength:                                                      0.000000
  Trans. dip. moment [a.u.]:           [   0.000000,   -0.000000,    0.000000]
  <i|r^2|0> [a.u.]:                    [  -0.000000,   -0.000000,   -0.000000]

  V1^2 = 0.0001, V2^2 = 0.9999

  Important amplitudes:
     core i     occ j       vir a       vir b          v   
    --------------------------------------------------------
     1 (A) B   21 (A) B    22 (A) B    23 (A) B     -0.5990
     1 (A) A   21 (A) B    23 (A) A    22 (A) B     -0.1642
    --------------------------------------------------------
  ----------------------------------------------------------------------------


  Excited state  7 (A)                                             [converged]
  ----------------------------------------------------------------------------
  Term symbol:  8 (-) A                                     R^2 =  6.12579e-13

  Total energy:                                           -248.3325965645 a.u.
  Excitation energy:                                             410.053468 eV

  Osc. strength:                                                      0.000006
  Trans. dip. moment [a.u.]:           [  -0.000755,   -0.000000,    0.000000]
  <i|r^2|0> [a.u.]:                    [  -0.000000,    0.000000,    0.000000]

  V1^2 = 0.0012, V2^2 = 0.9988

  Important amplitudes:
     core i     occ j       vir a       vir b          v   
    --------------------------------------------------------
     1 (A) A   21 (A) B    23 (A) A    23 (A) B     -0.6131
     1 (A) A   21 (A) B    23 (A) A    28 (A) B      0.2507
    --------------------------------------------------------
  ----------------------------------------------------------------------------


  Excited state  8 (A)                                             [converged]
  ----------------------------------------------------------------------------
  Term symbol:  9 (-) A                                     R^2 =  4.59500e-12

  Total energy:                                           -248.3306033132 a.u.
  Excitation energy:                                             410.107707 eV

  Osc. strength:                                                      0.000000
  Trans. dip. moment [a.u.]:           [   0.000000,   -0.000000,    0.000000]
  <i|r^2|0> [a.u.]:                    [  -0.000000,   -0.000000,   -0.000000]

  V1^2 = 0.7945, V2^2 = 0.2055

  Important amplitudes:
     core i     occ j       vir a       vir b          v   
    --------------------------------------------------------
     1 (A) B               29 (A) B                 -0.8052
     1 (A) B               38 (A) B                 -0.3671
    --------------------------------------------------------
  ----------------------------------------------------------------------------


  Excited state  9 (A)                                             [converged]
  ----------------------------------------------------------------------------
  Term symbol:  10 (-) A                                    R^2 =  2.75286e-12

  Total energy:                                           -248.2484479922 a.u.
  Excitation energy:                                             412.343267 eV

  Osc. strength:                                                      0.000592
  Trans. dip. moment [a.u.]:           [   0.007655,   -0.000000,   -0.000000]
  <i|r^2|0> [a.u.]:                    [   0.000000,   -0.000000,   -0.000000]

  V1^2 = 0.8248, V2^2 = 0.1752

  Important amplitudes:
     core i     occ j       vir a       vir b          v   
    --------------------------------------------------------
     1 (A) A               24 (A) A                  0.7823
     1 (A) A               29 (A) A                  0.3164
    --------------------------------------------------------
  ----------------------------------------------------------------------------


  Excited state 10 (A)                                             [converged]
  ----------------------------------------------------------------------------
  Term symbol:  11 (-) A                                    R^2 =  1.35818e-12

  Total energy:                                           -248.2453979797 a.u.
  Excitation energy:                                             412.426262 eV

  Osc. strength:                                                      0.012608
  Trans. dip. moment [a.u.]:           [  -0.000000,    0.000000,    0.035324]
  <i|r^2|0> [a.u.]:                    [  -0.000000,   -0.000000,   -0.000000]

  V1^2 = 0.8024, V2^2 = 0.1976

  Important amplitudes:
     core i     occ j       vir a       vir b          v   
    --------------------------------------------------------
     1 (A) A               40 (A) A                  0.7635
     1 (A) A               48 (A) A                  0.2876
    --------------------------------------------------------
  ----------------------------------------------------------------------------


  Excited state 11 (A)                                             [converged]
  ----------------------------------------------------------------------------
  Term symbol:  12 (-) A                                    R^2 =  1.02178e-11

  Total energy:                                           -248.2284407607 a.u.
  Excitation energy:                                             412.887692 eV

  Osc. strength:                                                      0.000003
  Trans. dip. moment [a.u.]:           [   0.000000,   -0.000545,    0.000000]
  <i|r^2|0> [a.u.]:                    [  -0.000000,    0.000000,    0.000000]

  V1^2 = 0.0003, V2^2 = 0.9997

  Important amplitudes:
     core i     occ j       vir a       vir b          v   
    --------------------------------------------------------
     1 (A) A   21 (A) B    22 (A) A    23 (A) B      0.5349
     1 (A) A   21 (A) B    40 (A) A    22 (A) B     -0.2756
    --------------------------------------------------------
  ----------------------------------------------------------------------------


  Excited state 12 (A)                                             [converged]
  ----------------------------------------------------------------------------
  Term symbol:  13 (-) A                                    R^2 =  1.76607e-11

  Total energy:                                           -248.2236019245 a.u.
  Excitation energy:                                             413.019363 eV

  Osc. strength:                                                      0.000000
  Trans. dip. moment [a.u.]:           [  -0.000000,    0.000000,    0.000000]
  <i|r^2|0> [a.u.]:                    [  -0.000799,   -0.000067,   -0.000032]

  V1^2 = 0.0003, V2^2 = 0.9997

  Important amplitudes:
     core i     occ j       vir a       vir b          v   
    --------------------------------------------------------
     1 (A) A   21 (A) B    22 (A) A    22 (A) B      0.6460
     1 (A) A   21 (A) B    40 (A) A    23 (A) B     -0.1942
    --------------------------------------------------------
  ----------------------------------------------------------------------------


  Excited state 13 (A)                                             [converged]
  ----------------------------------------------------------------------------
  Term symbol:  14 (-) A                                    R^2 =  1.67257e-10

  Total energy:                                           -248.2212070868 a.u.
  Excitation energy:                                             413.084530 eV

  Osc. strength:                                                      0.000000
  Trans. dip. moment [a.u.]:           [  -0.000000,    0.000000,   -0.000000]
  <i|r^2|0> [a.u.]:                    [  -0.000000,   -0.000000,   -0.000000]

  V1^2 = 0.8241, V2^2 = 0.1759

  Important amplitudes:
     core i     occ j       vir a       vir b          v   
    --------------------------------------------------------
     1 (A) B               24 (A) B                 -0.8831
     1 (A) B               42 (A) B                  0.1978
    --------------------------------------------------------
  ----------------------------------------------------------------------------


  Excited state 14 (A)                                             [converged]
  ----------------------------------------------------------------------------
  Term symbol:  15 (-) A                                    R^2 =  4.89649e-10

  Total energy:                                           -248.2135644752 a.u.
  Excitation energy:                                             413.292496 eV

  Osc. strength:                                                      0.000000
  Trans. dip. moment [a.u.]:           [   0.000000,   -0.000000,    0.000000]
  <i|r^2|0> [a.u.]:                    [  -0.000000,   -0.000000,   -0.000000]

  V1^2 = 0.8168, V2^2 = 0.1832

  Important amplitudes:
     core i     occ j       vir a       vir b          v   
    --------------------------------------------------------
     1 (A) A               25 (A) A                  0.8690
     1 (A) A               42 (A) A                 -0.2327
    --------------------------------------------------------
  ----------------------------------------------------------------------------


  Excited state 15 (A)                                             [converged]
  ----------------------------------------------------------------------------
  Term symbol:  16 (-) A                                    R^2 =  2.80857e-10

  Total energy:                                           -248.2127147505 a.u.
  Excitation energy:                                             413.315618 eV

  Osc. strength:                                                      0.026001
  Trans. dip. moment [a.u.]:           [  -0.000000,   -0.000000,   -0.050672]
  <i|r^2|0> [a.u.]:                    [   0.000000,   -0.000000,   -0.000000]

  V1^2 = 0.7895, V2^2 = 0.2105

  Important amplitudes:
     core i     occ j       vir a       vir b          v   
    --------------------------------------------------------
     1 (A) B               44 (A) B                 -0.7004
     1 (A) B               30 (A) B                 -0.3850
    --------------------------------------------------------
  ----------------------------------------------------------------------------


  Excited state 16 (A)                                             [converged]
  ----------------------------------------------------------------------------
  Term symbol:  17 (-) A                                    R^2 =  1.22876e-11

  Total energy:                                           -248.2091789444 a.u.
  Excitation energy:                                             413.411832 eV

  Osc. strength:                                                      0.000021
  Trans. dip. moment [a.u.]:           [   0.001446,   -0.000000,    0.000000]
  <i|r^2|0> [a.u.]:                    [   0.000000,    0.000000,    0.000000]

  V1^2 = 0.8250, V2^2 = 0.1750

  Important amplitudes:
     core i     occ j       vir a       vir b          v   
    --------------------------------------------------------
     1 (A) A               29 (A) A                  0.6003
     1 (A) B               27 (A) B                 -0.4290
    --------------------------------------------------------
  ----------------------------------------------------------------------------


  Excited state 17 (A)                                             [converged]
  ----------------------------------------------------------------------------
  Term symbol:  18 (-) A                                    R^2 =  4.44773e-12

  Total energy:                                           -248.2062347820 a.u.
  Excitation energy:                                             413.491947 eV

  Osc. strength:                                                      0.000000
  Trans. dip. moment [a.u.]:           [  -0.000000,    0.000000,   -0.000000]
  <i|r^2|0> [a.u.]:                    [   0.000000,    0.000000,    0.000000]

  V1^2 = 0.8043, V2^2 = 0.1957

  Important amplitudes:
     core i     occ j       vir a       vir b          v   
    --------------------------------------------------------
     1 (A) B               28 (A) B                  0.7492
     1 (A) B               23 (A) B                  0.4722
    --------------------------------------------------------
  ----------------------------------------------------------------------------


  Excited state 18 (A)                                             [converged]
  ----------------------------------------------------------------------------
  Term symbol:  19 (-) A                                    R^2 =  2.97066e-11

  Total energy:                                           -248.2020458271 a.u.
  Excitation energy:                                             413.605934 eV

  Osc. strength:                                                      0.001206
  Trans. dip. moment [a.u.]:           [   0.010910,    0.000000,   -0.000000]
  <i|r^2|0> [a.u.]:                    [   0.000000,   -0.000000,   -0.000000]

  V1^2 = 0.8257, V2^2 = 0.1743

  Important amplitudes:
     core i     occ j       vir a       vir b          v   
    --------------------------------------------------------
     1 (A) B               27 (A) B                  0.7003
     1 (A) A               29 (A) A                  0.4425
    --------------------------------------------------------
  ----------------------------------------------------------------------------


  Excited state 19 (A)                                             [converged]
  ----------------------------------------------------------------------------
  Term symbol:  20 (-) A                                    R^2 =  7.44405e-11

  Total energy:                                           -248.1980291351 a.u.
  Excitation energy:                                             413.715234 eV

  Osc. strength:                                                      0.000001
  Trans. dip. moment [a.u.]:           [  -0.000000,   -0.000372,   -0.000000]
  <i|r^2|0> [a.u.]:                    [   0.000000,    0.000000,    0.000000]

  V1^2 = 0.0002, V2^2 = 0.9998

  Important amplitudes:
     core i     occ j       vir a       vir b          v   
    --------------------------------------------------------
     1 (A) A   21 (A) B    23 (A) A    29 (A) B     -0.5753
     1 (A) A   21 (A) B    22 (A) A    23 (A) B      0.2477
    --------------------------------------------------------
  ----------------------------------------------------------------------------


  Excited state 20 (A)                                             [converged]
  ----------------------------------------------------------------------------
  Term symbol:  21 (-) A                                    R^2 =  1.32060e-10

  Total energy:                                           -248.1959066035 a.u.
  Excitation energy:                                             413.772991 eV

  Osc. strength:                                                      0.000000
  Trans. dip. moment [a.u.]:           [   0.000000,    0.000000,    0.000000]
  <i|r^2|0> [a.u.]:                    [   0.047892,    0.001648,    0.001106]

  V1^2 = 0.8306, V2^2 = 0.1694

  Important amplitudes:
     core i     occ j       vir a       vir b          v   
    --------------------------------------------------------
     1 (A) B               25 (A) B                 -0.8779
     1 (A) B               45 (A) B                 -0.1529
    --------------------------------------------------------
  ----------------------------------------------------------------------------


  Excited state 21 (A)                                             [converged]
  ----------------------------------------------------------------------------
  Term symbol:  22 (-) A                                    R^2 =  1.70093e-11

  Total energy:                                           -248.1950408098 a.u.
  Excitation energy:                                             413.796551 eV

  Osc. strength:                                                      0.000000
  Trans. dip. moment [a.u.]:           [   0.000000,    0.000000,   -0.000000]
  <i|r^2|0> [a.u.]:                    [   0.000000,    0.000000,    0.000000]

  V1^2 = 0.8082, V2^2 = 0.1918

  Important amplitudes:
     core i     occ j       vir a       vir b          v   
    --------------------------------------------------------
     1 (A) A               28 (A) A                  0.8836
     1 (A) A               43 (A) A                  0.1278
    --------------------------------------------------------
  ----------------------------------------------------------------------------


  Excited state 22 (A)                                             [converged]
  ----------------------------------------------------------------------------
  Term symbol:  23 (-) A                                    R^2 =  5.27690e-09

  Total energy:                                           -248.1922963553 a.u.
  Excitation energy:                                             413.871231 eV

  Osc. strength:                                                      0.000000
  Trans. dip. moment [a.u.]:           [  -0.000000,    0.000000,    0.000000]
  <i|r^2|0> [a.u.]:                    [  -0.063994,   -0.001966,   -0.001306]

  V1^2 = 0.8236, V2^2 = 0.1764

  Important amplitudes:
     core i     occ j       vir a       vir b          v   
    --------------------------------------------------------
     1 (A) A               26 (A) A                  0.8657
     1 (A) A               45 (A) A                  0.1738
    --------------------------------------------------------
  ----------------------------------------------------------------------------


  Excited state 23 (A)                                             [converged]
  ----------------------------------------------------------------------------
  Term symbol:  24 (-) A                                    R^2 =  1.62492e-09

  Total energy:                                           -248.1785201306 a.u.
  Excitation energy:                                             414.246101 eV

  Osc. strength:                                                      0.000814
  Trans. dip. moment [a.u.]:           [  -0.000000,    0.008953,    0.000000]
  <i|r^2|0> [a.u.]:                    [   0.000000,   -0.000000,   -0.000000]

  V1^2 = 0.8215, V2^2 = 0.1785

  Important amplitudes:
     core i     occ j       vir a       vir b          v   
    --------------------------------------------------------
     1 (A) A               27 (A) A                  0.8500
     1 (A) A               46 (A) A                  0.2842
    --------------------------------------------------------
  ----------------------------------------------------------------------------


  Excited state 24 (A)                                             [converged]
  ----------------------------------------------------------------------------
  Term symbol:  25 (-) A                                    R^2 =  3.10917e-09

  Total energy:                                           -248.1762438167 a.u.
  Excitation energy:                                             414.308043 eV

  Osc. strength:                                                      0.000386
  Trans. dip. moment [a.u.]:           [   0.006163,   -0.000000,    0.000000]
  <i|r^2|0> [a.u.]:                    [   0.000000,   -0.000000,   -0.000000]

  V1^2 = 0.8161, V2^2 = 0.1839

  Important amplitudes:
     core i     occ j       vir a       vir b          v   
    --------------------------------------------------------
     1 (A) A               31 (A) A                 -0.7501
     1 (A) B               31 (A) B                 -0.2394
    --------------------------------------------------------
  ----------------------------------------------------------------------------


  Excited state 25 (A)                                         [not converged]
  ----------------------------------------------------------------------------
  Term symbol:  26 (-) A                                    R^2 =  1.85211e-04

  Total energy:                                           -248.1742016642 a.u.
  Excitation energy:                                             414.363613 eV


  V1^2 = 0.0095, V2^2 = 0.9905

  Important amplitudes:
     core i     occ j       vir a       vir b          v   
    --------------------------------------------------------
     1 (A) A   21 (A) B    23 (A) A    24 (A) B      0.6619
     1 (A) A   21 (A) B    43 (A) A    24 (A) B     -0.1503
    --------------------------------------------------------
  ----------------------------------------------------------------------------


  Excited state 26 (A)                                             [converged]
  ----------------------------------------------------------------------------
  Term symbol:  27 (-) A                                    R^2 =  9.33880e-10

  Total energy:                                           -248.1714013514 a.u.
  Excitation energy:                                             414.439813 eV

  Osc. strength:                                                      0.000575
  Trans. dip. moment [a.u.]:           [  -0.000000,   -0.007524,    0.000000]
  <i|r^2|0> [a.u.]:                    [   0.000000,   -0.000000,   -0.000000]

  V1^2 = 0.8240, V2^2 = 0.1760

  Important amplitudes:
     core i     occ j       vir a       vir b          v   
    --------------------------------------------------------
     1 (A) B               26 (A) B                 -0.8661
     1 (A) B               46 (A) B                  0.2429
    --------------------------------------------------------
  ----------------------------------------------------------------------------


  Excited state 27 (A)                                             [converged]
  ----------------------------------------------------------------------------
  Term symbol:  28 (-) A                                    R^2 =  6.84643e-09

  Total energy:                                           -248.1692535109 a.u.
  Excitation energy:                                             414.498259 eV

  Osc. strength:                                                      0.001789
  Trans. dip. moment [a.u.]:           [   0.013274,    0.000000,   -0.000000]
  <i|r^2|0> [a.u.]:                    [   0.000000,   -0.000000,   -0.000000]

  V1^2 = 0.8273, V2^2 = 0.1727

  Important amplitudes:
     core i     occ j       vir a       vir b          v   
    --------------------------------------------------------
     1 (A) B               31 (A) B                  0.7564
     1 (A) A               31 (A) A                 -0.2844
    --------------------------------------------------------
  ----------------------------------------------------------------------------


  Excited state 28 (A)                                             [converged]
  ----------------------------------------------------------------------------
  Term symbol:  29 (-) A                                    R^2 =  1.24737e-08

  Total energy:                                           -248.1665509544 a.u.
  Excitation energy:                                             414.571799 eV

  Osc. strength:                                                      0.000000
  Trans. dip. moment [a.u.]:           [   0.000000,   -0.000000,   -0.000000]
  <i|r^2|0> [a.u.]:                    [   0.002179,   -0.000129,   -0.000097]

  V1^2 = 0.0037, V2^2 = 0.9963

  Important amplitudes:
     core i     occ j       vir a       vir b          v   
    --------------------------------------------------------
     1 (A) A   21 (A) B    23 (A) A    30 (A) B      0.3840
     1 (A) B   21 (A) B    22 (A) B    29 (A) B      0.2744
    --------------------------------------------------------
  ----------------------------------------------------------------------------


  Excited state 29 (A)                                         [not converged]
  ----------------------------------------------------------------------------
  Term symbol:  30 (-) A                                    R^2 =  1.44116e-05

  Total energy:                                           -248.1580670408 a.u.
  Excitation energy:                                             414.802658 eV


  V1^2 = 0.0007, V2^2 = 0.9993

  Important amplitudes:
     core i     occ j       vir a       vir b          v   
    --------------------------------------------------------
     1 (A) A   21 (A) B    23 (A) A    27 (A) B      0.6394
     1 (A) A   21 (A) B    43 (A) A    27 (A) B     -0.1438
    --------------------------------------------------------
  ----------------------------------------------------------------------------


  Excited state 30 (A)                                             [converged]
  ----------------------------------------------------------------------------
  Term symbol:  31 (-) A                                    R^2 =  3.79373e-07

  Total energy:                                           -248.1557968537 a.u.
  Excitation energy:                                             414.864433 eV

  Osc. strength:                                                      0.000000
  Trans. dip. moment [a.u.]:           [  -0.000000,   -0.000000,   -0.000000]
  <i|r^2|0> [a.u.]:                    [  -0.000645,    0.000125,    0.000108]

  V1^2 = 0.0012, V2^2 = 0.9988

  Important amplitudes:
     core i     occ j       vir a       vir b          v   
    --------------------------------------------------------
     1 (A) B   21 (A) B    22 (A) B    29 (A) B      0.5780
     1 (A) A   21 (A) B    23 (A) A    30 (A) B     -0.2198
    --------------------------------------------------------
  ----------------------------------------------------------------------------


--------------------------------------------------------------------------------
  Time of ADC calculation:  CPU 52618.93 s  wall 22397.21 s
================================================================================
 
 --------------------------------------------------------------
 
                    Orbital Energies (a.u.)
 --------------------------------------------------------------
 
 Alpha MOs
 -- Occupied --
-15.662 -15.662 -11.403 -11.403 -11.402 -11.402  -1.399  -1.292
 -1.177  -1.010  -0.980  -0.818  -0.798  -0.766  -0.711  -0.673
 -0.633  -0.564  -0.507  -0.488  -0.487
 -- Virtual --
 -0.006   0.016   0.050   0.062   0.075   0.090   0.095   0.096
  0.121   0.123   0.126   0.138   0.139   0.178   0.180   0.181
  0.183   0.236   0.237   0.242   0.263   0.267   0.271   0.276
  0.284   0.308   0.324   0.337   0.342   0.355   0.381   0.386
  0.395   0.447   0.451   0.551   0.592   0.608   0.613   0.643
  0.659   0.678   0.687   0.706   0.716   0.769   0.844   0.856
  0.862   0.898   0.908   0.910   0.935   0.957   0.983   1.036
  1.052   1.069   1.110   1.121   1.136   1.141   1.187   1.188
  1.255   1.331   1.347   1.439   1.496   1.530   1.551   1.654
  1.717   1.763   1.781   1.820   1.919   2.008   2.009   2.054
  2.113   2.198   2.327   2.451   2.486   2.515   2.549   2.570
  2.582   2.623   2.713   2.883   2.907   2.994   3.060   3.069
  3.070   3.078   3.139   3.158   3.212   3.266   3.502   3.531
  3.679   3.726   3.752   3.775   3.780   4.245   4.250   4.271
  4.359   4.630   4.960   5.182   5.712  24.601  24.725  25.035
 25.051  36.824  36.997
 
 Beta MOs
 -- Occupied --
-15.672 -15.672 -11.395 -11.395 -11.394 -11.394  -1.395  -1.311
 -1.125  -0.994  -0.963  -0.815  -0.795  -0.759  -0.702  -0.634
 -0.617  -0.574  -0.540  -0.495  -0.083
 -- Virtual --
 -0.119   0.014   0.032   0.054   0.079   0.079   0.086   0.089
  0.106   0.109   0.119   0.130   0.132   0.168   0.175   0.177
  0.193   0.230   0.235   0.249   0.260   0.268   0.275   0.275
  0.289   0.305   0.309   0.336   0.341   0.350   0.379   0.381
  0.397   0.451   0.473   0.554   0.608   0.629   0.650   0.662
  0.679   0.680   0.688   0.740   0.749   0.773   0.849   0.858
  0.862   0.898   0.912   0.913   0.942   0.965   0.992   1.007
  1.046   1.075   1.081   1.123   1.137   1.138   1.223   1.226
  1.254   1.325   1.387   1.469   1.513   1.548   1.563   1.643
  1.726   1.779   1.786   1.826   1.919   2.032   2.034   2.071
  2.139   2.211   2.330   2.447   2.496   2.503   2.547   2.564
  2.579   2.617   2.714   2.866   2.906   3.023   3.056   3.057
  3.076   3.092   3.140   3.185   3.239   3.267   3.509   3.538
  3.680   3.728   3.755   3.778   3.780   4.243   4.249   4.255
  4.332   4.626   4.959   5.180   5.712  24.606  24.731  25.040
 25.056  36.817  36.990
 --------------------------------------------------------------
 
          Ground-State Mulliken Net Atomic Charges

     Atom                 Charge (a.u.)    Spin (a.u.)
  --------------------------------------------------------
      1 C                    -0.639795      -0.085037
      2 C                    -0.639795      -0.085037
      3 N                     0.474026       0.100421
      4 N                     0.474026       0.100421
      5 C                    -0.639795      -0.085037
      6 C                    -0.639795      -0.085037
      7 H                     0.402782       0.034826
      8 H                     0.402782       0.034826
      9 H                     0.402782       0.034826
     10 H                     0.402782       0.034826
  --------------------------------------------------------
  Sum of atomic charges =     0.000000
  Sum of spin   charges =     0.000000

 -----------------------------------------------------------------
                    Cartesian Multipole Moments
 -----------------------------------------------------------------
    Charge (ESU x 10^10)
                 0.0000
    Dipole Moment (Debye)
         X       0.0000      Y       0.0000      Z       0.0000
       Tot       0.0000
    Quadrupole Moments (Debye-Ang)
        XX     -53.8582     XY       0.0000     YY     -39.4385
        XZ       0.0000     YZ       0.0000     ZZ     -51.8169
    Octopole Moments (Debye-Ang^2)
       XXX       0.0000    XXY       0.0000    XYY       0.0000
       YYY       0.0000    XXZ       0.0000    XYZ       0.0000
       YYZ       0.0000    XZZ       0.0000    YZZ       0.0000
       ZZZ       0.0000
    Hexadecapole Moments (Debye-Ang^3)
      XXXX    -471.6327   XXXY       0.0000   XXYY    -143.1562
      XYYY       0.0000   YYYY    -464.2344   XXXZ       0.0000
      XXYZ       0.0000   XYYZ       0.0000   YYYZ       0.0000
      XXZZ    -106.3419   XYZZ       0.0000   YYZZ    -122.5066
      XZZZ       0.0000   YZZZ       0.0000   ZZZZ    -178.6606
 -----------------------------------------------------------------
Archival summary:
1\1\tp-linux1\SP\HF\BasisUnspecified\244\thomas\ThuMar205:53:182017ThuMar205:53:182017\0\\#,HF,BasisUnspecified,\\0,1\N\C,1,1.34606\H,2,1.0834,1,116.808\C,1,1.34606,2,115.185,3,-180,0\H,4,1.0834,1,116.808,2,-180,0\C,2,1.39225,1,122.408,3,-180,0\H,6,1.0834,2,120.785,1,-180,0\N,6,1.34606,2,122.408,1,0,0\C,8,1.34606,6,115.185,2,0,0\H,9,1.0834,8,116.808,6,-180,0\\HF=-262.499637\\@

 Total job time:  22404.39s(wall), 52636.44s(cpu) 
 Thu Mar  2 05:53:18 2017

        *************************************************************
        *                                                           *
        *  Thank you very much for using Q-Chem.  Have a nice day.  *
        *                                                           *
        *************************************************************


0 sent ACK to 0 
now end server 0 ... 
cleanup process ... done
